 Gaussian 09, Revision C.01,
 Gaussian 09:  EM64L-G09RevC.01 23-Sep-2011

 ----------------------------------------------------------------
 # wb97xd/6-31+g** scrf=(pcm,solvent=chloroform,smd,dovacuum) nmr
 ----------------------------------------------------------------

 99/9=1/99;
 -------
 comment
 -------
 Charge =  0 Multiplicity = 1

                         Standard orientation:
 ---------------------------------------------------------------------
 Center     Atomic      Atomic             Coordinates (Angstroms)
 Number     Number       Type             X           Y           Z
 ---------------------------------------------------------------------
      1          6           0        1.549938    0.572469   -1.108489
      2          6           0        3.057021    0.003520    1.167195
      3          6           0        2.641345    1.375386   -0.772936
      4          6           0        1.195839   -0.522401   -0.306200
      5          6           0        1.966095   -0.800356    0.833693
      6          6           0        3.393454    1.091364    0.364749
      7          6           0        0.006284   -1.386933   -0.678688
      8          6           0       -1.113005   -1.402624    0.372809
      9          6           0       -1.628137   -0.008910    0.655470
     10          8           0       -1.966986    0.641913   -0.492617
     11          6           0       -2.495960    1.965933   -0.325682
     12          8           0        0.472733   -2.725436   -0.894024
     13          6           0       -2.283818   -2.296358   -0.038927
     14          8           0       -1.760606    0.445954    1.784851
     15          6           0       -1.367104    2.977461   -0.261320
     16          1           0        0.973683    0.813976   -1.999455
     17          1           0        3.643127   -0.218591    2.055428
     18          1           0        2.903865    2.224830   -1.398392
     19          1           0        1.720475   -1.648556    1.470250
     20          1           0        4.241620    1.718371    0.627143
     21          1           0       -0.394933   -1.052447   -1.643318
     22          1           0       -0.719190   -1.801886    1.316755
     23          1           0       -3.142761    2.028902    0.556872
     24          1           0       -3.124255    2.171262   -1.198575
     25          1           0        1.390129   -2.664646   -1.214694
     26          1           0       -1.973690   -3.343211   -0.117507
     27          1           0       -3.092911   -2.241098    0.697863
     28          1           0       -2.698992   -1.990831   -1.005672
     29          1           0       -0.712134    2.783324    0.593885
     30          1           0       -1.761837    3.993798   -0.176179
     31          1           0       -0.745036    2.916049   -1.160124
 ---------------------------------------------------------------------

 SCF Done:  E(RwB97XD) =  -692.445650033     A.U. after   16 cycles

      1  C    Isotropic =    69.4005   Anisotropy =   165.0302

      2  C    Isotropic =    68.8102   Anisotropy =   177.1438

      3  C    Isotropic =    69.9174   Anisotropy =   173.4255

      4  C    Isotropic =    52.5283   Anisotropy =   185.9934

      5  C    Isotropic =    73.6228   Anisotropy =   182.6289

      6  C    Isotropic =    70.9389   Anisotropy =   179.9630

      7  C    Isotropic =   120.5929   Anisotropy =    26.2308

      8  C    Isotropic =   146.4257   Anisotropy =    29.6499

      9  C    Isotropic =    20.3266   Anisotropy =   103.9066

     10  O    Isotropic =   135.7156   Anisotropy =   168.2572

     11  C    Isotropic =   137.4989   Anisotropy =    66.4536

     12  O    Isotropic =   268.1472   Anisotropy =    42.8421

     13  C    Isotropic =   179.7759   Anisotropy =    28.3571

     14  O    Isotropic =   -48.8063   Anisotropy =   533.5614

     15  C    Isotropic =   181.1523   Anisotropy =    22.8426

     16  H    Isotropic =    23.6812   Anisotropy =     6.7457

     17  H    Isotropic =    23.7265   Anisotropy =     4.9880

     18  H    Isotropic =    23.9295   Anisotropy =     4.9011

     19  H    Isotropic =    23.2797   Anisotropy =     9.3887

     20  H    Isotropic =    23.6881   Anisotropy =     4.3201

     21  H    Isotropic =    26.7008   Anisotropy =     6.1043

     22  H    Isotropic =    28.3573   Anisotropy =     5.4887

     23  H    Isotropic =    27.1239   Anisotropy =     7.4395

     24  H    Isotropic =    27.8375   Anisotropy =     8.5707

     25  H    Isotropic =    30.1158   Anisotropy =    13.7637

     26  H    Isotropic =    29.8174   Anisotropy =     9.0958

     27  H    Isotropic =    30.4238   Anisotropy =     9.8231

     28  H    Isotropic =    30.3344   Anisotropy =     8.0433

     29  H    Isotropic =    31.1598   Anisotropy =     4.7808

     30  H    Isotropic =    30.9031   Anisotropy =    11.8954

     31  H    Isotropic =    30.6539   Anisotropy =     6.7907

 The electronic state is 1-A.
 Alpha  occ. eigenvalues --  -19.32888 -19.28158 -19.27523 -10.44104 -10.35969
 Alpha  occ. eigenvalues --  -10.35061 -10.31850 -10.31648 -10.30948 -10.30940
 Alpha  occ. eigenvalues --  -10.30825 -10.30787 -10.30723 -10.29048 -10.28627
 Alpha  occ. eigenvalues --   -1.21002  -1.12918  -1.12431  -0.96410  -0.91589
 Alpha  occ. eigenvalues --   -0.86551  -0.85377  -0.84943  -0.77808  -0.75826
 Alpha  occ. eigenvalues --   -0.71587  -0.70062  -0.68595  -0.64806  -0.62239
 Alpha  occ. eigenvalues --   -0.60292  -0.57608  -0.57324  -0.56073  -0.55506
 Alpha  occ. eigenvalues --   -0.53263  -0.52652  -0.52335  -0.50831  -0.50388
 Alpha  occ. eigenvalues --   -0.49533  -0.47984  -0.46652  -0.46349  -0.45414
 Alpha  occ. eigenvalues --   -0.45061  -0.44910  -0.43260  -0.42533  -0.41727
 Alpha  occ. eigenvalues --   -0.40051  -0.38854  -0.37293  -0.35894  -0.33467
 Alpha  occ. eigenvalues --   -0.32763
 Alpha virt. eigenvalues --    0.04480   0.05184   0.06499   0.07274   0.07631
 Alpha virt. eigenvalues --    0.08252   0.08353   0.09406   0.09649   0.09976
 Alpha virt. eigenvalues --    0.10725   0.10997   0.11708   0.12564   0.12981

 Mulliken atomic charges:
              1
     1  C   -0.090493
     2  C   -0.179014
     3  C   -0.294427
     4  C   -0.553344
     5  C    0.117889
     6  C   -0.153991
     7  C    0.249816
     8  C    0.147601
     9  C    0.031155
    10  O   -0.241493
    11  C   -0.029477
    12  O   -0.553426
    13  C   -0.597815
    14  O   -0.461045
    15  C   -0.476826
    16  H    0.173203
    17  H    0.186548
    18  H    0.182670
    19  H    0.182378
    20  H    0.184412
    21  H    0.150866
    22  H    0.198006
    23  H    0.180151
    24  H    0.173458
    25  H    0.398015
    26  H    0.188873
    27  H    0.179301
    28  H    0.178719
    29  H    0.179891
    30  H    0.176733
    31  H    0.171666
 Sum of Mulliken atomic charges =   0.00000

 Dipole moment (field-independent basis, Debye):
    X=              1.0995    Y=              1.8074    Z=             -2.4985  Tot=              3.2739
 Quadrupole moment (field-independent basis, Debye-Ang):
   XX=            -80.7004   YY=            -87.4769   ZZ=            -92.9893
   XY=             -1.3203   XZ=              5.6620   YZ=             -6.4779

 Normal termination of Gaussian 09 at Tue May 17 16:12:12 2022.
