 Gaussian 09, Revision C.01,
 Gaussian 09:  EM64L-G09RevC.01 23-Sep-2011

 ----------------------------------------------------------------
 # wb97xd/6-31+g** scrf=(pcm,solvent=chloroform,smd,dovacuum) nmr
 ----------------------------------------------------------------

 99/9=1/99;
 -------
 comment
 -------
 Charge =  0 Multiplicity = 1

                         Standard orientation:
 ---------------------------------------------------------------------
 Center     Atomic      Atomic             Coordinates (Angstroms)
 Number     Number       Type             X           Y           Z
 ---------------------------------------------------------------------
      1          6           0       -1.447694   -0.742852   -1.012348
      2          6           0       -3.205378   -0.016041    1.025564
      3          6           0       -2.508362   -1.583699   -0.669563
      4          6           0       -1.248862    0.470633   -0.336269
      5          6           0       -2.144752    0.824733    0.684362
      6          6           0       -3.385413   -1.220903    0.350139
      7          6           0       -0.077270    1.362019   -0.696717
      8          6           0        0.995928    1.420170    0.401992
      9          6           0        1.590788    0.056068    0.677921
     10          8           0        2.006262   -0.548553   -0.470887
     11          6           0        2.643728   -1.824832   -0.306369
     12          8           0       -0.601232    2.674101   -0.934513
     13          6           0        2.127279    2.392987    0.065251
     14          8           0        1.734637   -0.404064    1.803441
     15          6           0        1.607673   -2.932368   -0.270951
     16          1           0       -0.775084   -1.044972   -1.811852
     17          1           0       -3.891673    0.272327    1.817297
     18          1           0       -2.650776   -2.522074   -1.198914
     19          1           0       -2.022499    1.768089    1.213029
     20          1           0       -4.211403   -1.874775    0.616511
     21          1           0        0.354536    1.021256   -1.646313
     22          1           0        0.537701    1.768801    1.337192
     23          1           0        3.278705   -1.840352    0.586868
     24          1           0        3.302643   -1.965761   -1.169432
     25          1           0       -0.002248    3.117233   -1.557914
     26          1           0        1.762626    3.424148    0.021801
     27          1           0        2.916781    2.350566    0.823884
     28          1           0        2.585828    2.152277   -0.900184
     29          1           0        0.920415   -2.803085    0.571003
     30          1           0        2.089147   -3.910348   -0.182623
     31          1           0        1.001992   -2.920687   -1.182752
 ---------------------------------------------------------------------

 SCF Done:  E(RwB97XD) =  -692.445629029     A.U. after   16 cycles

      1  C    Isotropic =    69.7584   Anisotropy =   162.7660

      2  C    Isotropic =    69.7386   Anisotropy =   177.1399

      3  C    Isotropic =    70.6318   Anisotropy =   173.6963

      4  C    Isotropic =    53.5194   Anisotropy =   183.5898

      5  C    Isotropic =    73.1298   Anisotropy =   181.4109

      6  C    Isotropic =    71.5435   Anisotropy =   177.7398

      7  C    Isotropic =   120.1345   Anisotropy =    27.5403

      8  C    Isotropic =   143.5405   Anisotropy =    29.8841

      9  C    Isotropic =    19.7252   Anisotropy =   105.1883

     10  O    Isotropic =   136.0034   Anisotropy =   166.2777

     11  C    Isotropic =   137.2692   Anisotropy =    66.6667

     12  O    Isotropic =   292.6118   Anisotropy =    46.4503

     13  C    Isotropic =   180.0830   Anisotropy =    28.3047

     14  O    Isotropic =   -48.9592   Anisotropy =   534.0943

     15  C    Isotropic =   180.7617   Anisotropy =    22.7174

     16  H    Isotropic =    23.7283   Anisotropy =     6.7520

     17  H    Isotropic =    23.7116   Anisotropy =     4.9708

     18  H    Isotropic =    23.9148   Anisotropy =     5.2493

     19  H    Isotropic =    23.4117   Anisotropy =     9.4809

     20  H    Isotropic =    23.7600   Anisotropy =     4.3201

     21  H    Isotropic =    26.7020   Anisotropy =     7.0052

     22  H    Isotropic =    28.5140   Anisotropy =     5.1362

     23  H    Isotropic =    27.0881   Anisotropy =     7.3184

     24  H    Isotropic =    27.7937   Anisotropy =     8.3985

     25  H    Isotropic =    29.2185   Anisotropy =    18.7081

     26  H    Isotropic =    29.9908   Anisotropy =     8.9570

     27  H    Isotropic =    30.3662   Anisotropy =     9.6892

     28  H    Isotropic =    30.4441   Anisotropy =     7.9706

     29  H    Isotropic =    30.8644   Anisotropy =     4.9062

     30  H    Isotropic =    30.7969   Anisotropy =    11.8070

     31  H    Isotropic =    30.4128   Anisotropy =     6.8023

 The electronic state is 1-A.
 Alpha  occ. eigenvalues --  -19.32902 -19.28313 -19.27493 -10.44046 -10.36043
 Alpha  occ. eigenvalues --  -10.35095 -10.31709 -10.31432 -10.30645 -10.30573
 Alpha  occ. eigenvalues --  -10.30526 -10.30509 -10.30423 -10.29401 -10.28637
 Alpha  occ. eigenvalues --   -1.20989  -1.13076  -1.12416  -0.96167  -0.91492
 Alpha  occ. eigenvalues --   -0.86575  -0.85344  -0.84630  -0.78013  -0.75786
 Alpha  occ. eigenvalues --   -0.71503  -0.70054  -0.67634  -0.64848  -0.61561
 Alpha  occ. eigenvalues --   -0.60761  -0.59312  -0.57528  -0.55731  -0.54648
 Alpha  occ. eigenvalues --   -0.53676  -0.52769  -0.51598  -0.51065  -0.50193
 Alpha  occ. eigenvalues --   -0.49698  -0.47401  -0.46588  -0.46128  -0.45432
 Alpha  occ. eigenvalues --   -0.44851  -0.44562  -0.43413  -0.42334  -0.42129
 Alpha  occ. eigenvalues --   -0.40409  -0.38868  -0.37598  -0.35392  -0.33147
 Alpha  occ. eigenvalues --   -0.32709
 Alpha virt. eigenvalues --    0.04854   0.05521   0.06368   0.07316   0.07464
 Alpha virt. eigenvalues --    0.08180   0.08385   0.09569   0.09681   0.10301
 Alpha virt. eigenvalues --    0.10683   0.11186   0.11655   0.12472   0.12773

 Mulliken atomic charges:
              1
     1  C   -0.294095
     2  C   -0.170823
     3  C   -0.292041
     4  C   -0.125792
     5  C    0.171877
     6  C   -0.155187
     7  C    0.004895
     8  C    0.094097
     9  C    0.033745
    10  O   -0.243469
    11  C   -0.028384
    12  O   -0.566829
    13  C   -0.580886
    14  O   -0.465335
    15  C   -0.474997
    16  H    0.167595
    17  H    0.184765
    18  H    0.180752
    19  H    0.179583
    20  H    0.182512
    21  H    0.161337
    22  H    0.200152
    23  H    0.179963
    24  H    0.173088
    25  H    0.402461
    26  H    0.185451
    27  H    0.184614
    28  H    0.182189
    29  H    0.181457
    30  H    0.176653
    31  H    0.170651
 Sum of Mulliken atomic charges =   0.00000

 Dipole moment (field-independent basis, Debye):
    X=              1.9966    Y=             -0.5627    Z=             -3.1305  Tot=              3.7554
 Quadrupole moment (field-independent basis, Debye-Ang):
   XX=            -84.8185   YY=            -80.5925   ZZ=            -92.6539
   XY=              5.5592   XZ=            -10.2142   YZ=              3.1085

 Normal termination of Gaussian 09 at Tue May 17 18:14:45 2022.
