 Gaussian 09, Revision C.01,
 Gaussian 09:  EM64L-G09RevC.01 23-Sep-2011

 ----------------------------------------------------------------
 # wb97xd/6-31+g** scrf=(pcm,solvent=chloroform,smd,dovacuum) nmr
 ----------------------------------------------------------------

 99/9=1/99;
 -------
 comment
 -------
 Charge =  0 Multiplicity = 1

                         Standard orientation:
 ---------------------------------------------------------------------
 Center     Atomic      Atomic             Coordinates (Angstroms)
 Number     Number       Type             X           Y           Z
 ---------------------------------------------------------------------
      1          6           0       -2.681837    0.729082   -0.212099
      2          6           0       -2.285622   -2.013655    0.088616
      3          6           0       -3.638903   -0.172521   -0.681709
      4          6           0       -1.512779    0.270794    0.414947
      5          6           0       -1.328277   -1.113673    0.559521
      6          6           0       -3.440473   -1.542918   -0.531286
      7          6           0       -0.482252    1.261898    0.919641
      8          6           0        0.712161    1.547480   -0.004931
      9          6           0        1.429665    0.282723   -0.435777
     10          8           0        2.242955   -0.168822    0.560185
     11          6           0        2.980817   -1.365681    0.277233
     12          8           0       -0.019899    0.875098    2.217843
     13          6           0        0.304659    2.357183   -1.238844
     14          8           0        1.320222   -0.244258   -1.535631
     15          6           0        4.286523   -1.024349   -0.415459
     16          1           0       -2.856439    1.794869   -0.344455
     17          1           0       -2.126331   -3.083029    0.200688
     18          1           0       -4.538270    0.194669   -1.169497
     19          1           0       -0.430945   -1.502906    1.037418
     20          1           0       -4.183269   -2.244484   -0.901712
     21          1           0       -0.998549    2.214518    1.097325
     22          1           0        1.448971    2.153117    0.541033
     23          1           0        2.384927   -2.071310   -0.313002
     24          1           0        3.189025   -1.847433    1.238175
     25          1           0       -0.776601    0.479820    2.685746
     26          1           0       -0.169191    3.300278   -0.947461
     27          1           0        1.182964    2.597845   -1.848446
     28          1           0       -0.392820    1.806789   -1.878894
     29          1           0        4.105066   -0.540490   -1.380338
     30          1           0        4.883486   -1.925168   -0.583378
     31          1           0        4.869664   -0.321407    0.188489
 ---------------------------------------------------------------------

 SCF Done:  E(RwB97XD) =  -692.442718536     A.U. after   16 cycles

      1  C    Isotropic =    69.7257   Anisotropy =   164.1282

      2  C    Isotropic =    69.2840   Anisotropy =   177.1569

      3  C    Isotropic =    70.9045   Anisotropy =   174.5907

      4  C    Isotropic =    54.8382   Anisotropy =   180.7166

      5  C    Isotropic =    72.9446   Anisotropy =   181.2369

      6  C    Isotropic =    70.8239   Anisotropy =   176.9930

      7  C    Isotropic =   119.0514   Anisotropy =    38.7276

      8  C    Isotropic =   151.2070   Anisotropy =    20.1118

      9  C    Isotropic =    20.4601   Anisotropy =    97.0279

     10  O    Isotropic =   120.9973   Anisotropy =   155.1641

     11  C    Isotropic =   137.9686   Anisotropy =    64.6653

     12  O    Isotropic =   274.5855   Anisotropy =    83.5584

     13  C    Isotropic =   181.2184   Anisotropy =    20.8252

     14  O    Isotropic =   -46.9816   Anisotropy =   579.6947

     15  C    Isotropic =   181.3167   Anisotropy =    26.9068

     16  H    Isotropic =    23.8647   Anisotropy =     8.0432

     17  H    Isotropic =    23.7744   Anisotropy =     5.5000

     18  H    Isotropic =    23.8063   Anisotropy =     4.7042

     19  H    Isotropic =    23.6005   Anisotropy =     8.8620

     20  H    Isotropic =    23.7782   Anisotropy =     4.0977

     21  H    Isotropic =    26.6126   Anisotropy =     6.0523

     22  H    Isotropic =    28.3518   Anisotropy =     5.4902

     23  H    Isotropic =    26.7997   Anisotropy =     5.4211

     24  H    Isotropic =    27.6019   Anisotropy =     7.3671

     25  H    Isotropic =    29.9521   Anisotropy =    14.8950

     26  H    Isotropic =    30.7633   Anisotropy =    10.2377

     27  H    Isotropic =    30.5398   Anisotropy =    10.7296

     28  H    Isotropic =    30.6157   Anisotropy =     5.8084

     29  H    Isotropic =    30.2956   Anisotropy =     6.3581

     30  H    Isotropic =    30.6515   Anisotropy =    11.5286

     31  H    Isotropic =    30.4236   Anisotropy =     8.6934

 The electronic state is 1-A.
 Alpha  occ. eigenvalues --  -19.32283 -19.27932 -19.27260 -10.43670 -10.36274
 Alpha  occ. eigenvalues --  -10.34772 -10.31977 -10.31751 -10.30922 -10.30881
 Alpha  occ. eigenvalues --  -10.30772 -10.30758 -10.30642 -10.28836 -10.28501
 Alpha  occ. eigenvalues --   -1.20554  -1.12831  -1.12081  -0.96351  -0.91267
 Alpha  occ. eigenvalues --   -0.86586  -0.85178  -0.84879  -0.77596  -0.76297
 Alpha  occ. eigenvalues --   -0.71142  -0.70169  -0.68049  -0.64088  -0.62175
 Alpha  occ. eigenvalues --   -0.59531  -0.58332  -0.57345  -0.56807  -0.55395
 Alpha  occ. eigenvalues --   -0.53334  -0.52944  -0.52287  -0.50759  -0.49882
 Alpha  occ. eigenvalues --   -0.48326  -0.47256  -0.46577  -0.46149  -0.45372
 Alpha  occ. eigenvalues --   -0.44806  -0.44148  -0.43599  -0.42423  -0.41687
 Alpha  occ. eigenvalues --   -0.40199  -0.38674  -0.36984  -0.35889  -0.33399
 Alpha  occ. eigenvalues --   -0.32577
 Alpha virt. eigenvalues --    0.04709   0.05021   0.06624   0.07169   0.07915
 Alpha virt. eigenvalues --    0.08052   0.08668   0.09379   0.09775   0.10407
 Alpha virt. eigenvalues --    0.10765   0.11381   0.11621   0.12110   0.12916

 Mulliken atomic charges:
              1
     1  C   -0.096471
     2  C   -0.209332
     3  C   -0.236341
     4  C    0.015704
     5  C   -0.208663
     6  C   -0.159536
     7  C    0.079338
     8  C    0.195615
     9  C   -0.245415
    10  O   -0.191833
    11  C    0.113726
    12  O   -0.528606
    13  C   -0.572515
    14  O   -0.427011
    15  C   -0.583087
    16  H    0.178374
    17  H    0.184366
    18  H    0.185526
    19  H    0.182033
    20  H    0.183673
    21  H    0.149603
    22  H    0.195923
    23  H    0.177099
    24  H    0.170113
    25  H    0.385595
    26  H    0.170012
    27  H    0.176325
    28  H    0.187241
    29  H    0.178880
    30  H    0.175969
    31  H    0.173697
 Sum of Mulliken atomic charges =   0.00000

 Dipole moment (field-independent basis, Debye):
    X=             -1.1782    Y=              0.0687    Z=              1.0963  Tot=              1.6108
 Quadrupole moment (field-independent basis, Debye-Ang):
   XX=            -77.5625   YY=            -78.2250   ZZ=            -98.2433
   XY=             -3.6363   XZ=              1.2776   YZ=             -4.5619

 Normal termination of Gaussian 09 at Tue May 17 19:16:30 2022.
