 Gaussian 09, Revision C.01,
 Gaussian 09:  EM64L-G09RevC.01 23-Sep-2011

 ----------------------------------------------------------------
 # wb97xd/6-31+g** scrf=(pcm,solvent=chloroform,smd,dovacuum) nmr
 ----------------------------------------------------------------

 99/9=1/99;
 -------
 comment
 -------
 Charge =  0 Multiplicity = 1

                         Standard orientation:
 ---------------------------------------------------------------------
 Center     Atomic      Atomic             Coordinates (Angstroms)
 Number     Number       Type             X           Y           Z
 ---------------------------------------------------------------------
      1          6           0       -2.560455    1.277516    0.129716
      2          6           0       -3.917712   -1.143238   -0.135041
      3          6           0       -3.922823    1.268498   -0.174927
      4          6           0       -1.859875    0.074689    0.311956
      5          6           0       -2.555514   -1.136160    0.169862
      6          6           0       -4.600915    0.058660   -0.305842
      7          6           0       -0.374862    0.112649    0.630203
      8          6           0        0.499692    0.073509   -0.634047
      9          6           0        1.824107    0.725608   -0.286654
     10          8           0        2.855159   -0.157687   -0.241982
     11          6           0        4.117481    0.415677    0.117197
     12          8           0       -0.037127   -0.953818    1.520724
     13          6           0        0.654674   -1.317006   -1.254002
     14          8           0        1.930719    1.926596   -0.057545
     15          6           0        5.152325   -0.692300    0.132166
     16          1           0       -2.047588    2.233312    0.223178
     17          1           0       -4.444755   -2.087872   -0.242544
     18          1           0       -4.454662    2.206651   -0.312143
     19          1           0       -2.036695   -2.085563    0.290782
     20          1           0       -5.661271    0.052440   -0.544454
     21          1           0       -0.184184    1.032812    1.197492
     22          1           0        0.066181    0.720197   -1.409945
     23          1           0        4.047841    0.870407    1.111702
     24          1           0        4.400539    1.176603   -0.618642
     25          1           0       -0.732135   -0.979552    2.202362
     26          1           0       -0.307068   -1.702207   -1.605188
     27          1           0        1.326272   -1.280276   -2.119321
     28          1           0        1.072926   -2.040613   -0.546392
     29          1           0        4.871867   -1.471905    0.848189
     30          1           0        6.137693   -0.302414    0.402134
     31          1           0        5.218289   -1.171367   -0.850313
 ---------------------------------------------------------------------

 SCF Done:  E(RwB97XD) =  -692.442402441     A.U. after   16 cycles

      1  C    Isotropic =    71.1800   Anisotropy =   163.8955

      2  C    Isotropic =    70.4773   Anisotropy =   176.4431

      3  C    Isotropic =    70.2178   Anisotropy =   175.8434

      4  C    Isotropic =    50.1191   Anisotropy =   185.3240

      5  C    Isotropic =    73.2921   Anisotropy =   177.8827

      6  C    Isotropic =    71.8833   Anisotropy =   175.5805

      7  C    Isotropic =   119.4290   Anisotropy =    33.5643

      8  C    Isotropic =   147.8551   Anisotropy =    23.7274

      9  C    Isotropic =    16.7434   Anisotropy =   102.2176

     10  O    Isotropic =   126.4955   Anisotropy =   152.8548

     11  C    Isotropic =   136.2604   Anisotropy =    59.5455

     12  O    Isotropic =   291.1583   Anisotropy =    79.5036

     13  C    Isotropic =   188.8978   Anisotropy =     8.7971

     14  O    Isotropic =   -42.1798   Anisotropy =   533.4196

     15  C    Isotropic =   182.4155   Anisotropy =    23.1601

     16  H    Isotropic =    23.6722   Anisotropy =     8.3060

     17  H    Isotropic =    23.7053   Anisotropy =     5.1898

     18  H    Isotropic =    23.7797   Anisotropy =     4.8389

     19  H    Isotropic =    23.2680   Anisotropy =    10.0830

     20  H    Isotropic =    23.8003   Anisotropy =     4.1920

     21  H    Isotropic =    26.2877   Anisotropy =     5.8078

     22  H    Isotropic =    28.9209   Anisotropy =     5.3243

     23  H    Isotropic =    27.4282   Anisotropy =     6.2905

     24  H    Isotropic =    27.4530   Anisotropy =     6.9744

     25  H    Isotropic =    30.0210   Anisotropy =    16.4695

     26  H    Isotropic =    30.5913   Anisotropy =     9.4395

     27  H    Isotropic =    30.6522   Anisotropy =     9.9986

     28  H    Isotropic =    29.7623   Anisotropy =     6.7252

     29  H    Isotropic =    30.1984   Anisotropy =     7.8979

     30  H    Isotropic =    30.3669   Anisotropy =    10.9584

     31  H    Isotropic =    30.2655   Anisotropy =     8.1571

 The electronic state is 1-A.
 Alpha  occ. eigenvalues --  -19.32788 -19.28300 -19.27266 -10.43760 -10.36228
 Alpha  occ. eigenvalues --  -10.34944 -10.32098 -10.31593 -10.30781 -10.30764
 Alpha  occ. eigenvalues --  -10.30719 -10.30706 -10.30561 -10.28729 -10.28547
 Alpha  occ. eigenvalues --   -1.21009  -1.13196  -1.12192  -0.96263  -0.91313
 Alpha  occ. eigenvalues --   -0.86970  -0.85053  -0.84782  -0.77991  -0.75173
 Alpha  occ. eigenvalues --   -0.71019  -0.70074  -0.67856  -0.65634  -0.62305
 Alpha  occ. eigenvalues --   -0.59423  -0.58530  -0.58042  -0.56845  -0.55044
 Alpha  occ. eigenvalues --   -0.53529  -0.53200  -0.51306  -0.50387  -0.49420
 Alpha  occ. eigenvalues --   -0.48700  -0.47367  -0.47174  -0.46260  -0.45533
 Alpha  occ. eigenvalues --   -0.44489  -0.44317  -0.43104  -0.42443  -0.42262
 Alpha  occ. eigenvalues --   -0.40625  -0.38842  -0.36899  -0.36186  -0.33361
 Alpha  occ. eigenvalues --   -0.32422
 Alpha virt. eigenvalues --    0.04665   0.05254   0.06467   0.07420   0.07911
 Alpha virt. eigenvalues --    0.08223   0.08705   0.09278   0.09823   0.10332
 Alpha virt. eigenvalues --    0.10702   0.11170   0.11317   0.11763   0.13033

 Mulliken atomic charges:
              1
     1  C   -0.009237
     2  C   -0.322185
     3  C   -0.302357
     4  C   -0.057979
     5  C   -0.167440
     6  C   -0.151868
     7  C    0.107191
     8  C    0.524601
     9  C   -0.193748
    10  O   -0.274731
    11  C    0.094346
    12  O   -0.569794
    13  C   -0.659682
    14  O   -0.479705
    15  C   -0.653609
    16  H    0.180467
    17  H    0.184668
    18  H    0.185103
    19  H    0.185557
    20  H    0.182609
    21  H    0.167950
    22  H    0.214214
    23  H    0.175728
    24  H    0.174606
    25  H    0.400443
    26  H    0.172260
    27  H    0.173139
    28  H    0.186885
    29  H    0.177106
    30  H    0.180334
    31  H    0.175128
 Sum of Mulliken atomic charges =   0.00000

 Dipole moment (field-independent basis, Debye):
    X=             -0.9551    Y=             -1.2337    Z=             -0.2871  Tot=              1.5864
 Quadrupole moment (field-independent basis, Debye-Ang):
   XX=            -71.9233   YY=            -93.6234   ZZ=            -88.3225
   XY=             -2.0450   XZ=             -0.6299   YZ=              0.1846

 Normal termination of Gaussian 09 at Tue May 17 16:46:02 2022.
