 Gaussian 09, Revision C.01,
 Gaussian 09:  EM64L-G09RevC.01 23-Sep-2011

 ----------------------------------------------------------------
 # wb97xd/6-31+g** scrf=(pcm,solvent=chloroform,smd,dovacuum) nmr
 ----------------------------------------------------------------

 99/9=1/99;
 -------
 comment
 -------
 Charge =  0 Multiplicity = 1

                         Standard orientation:
 ---------------------------------------------------------------------
 Center     Atomic      Atomic             Coordinates (Angstroms)
 Number     Number       Type             X           Y           Z
 ---------------------------------------------------------------------
      1          6           0       -1.627516   -0.854441   -1.105764
      2          6           0       -3.285985   -0.429502    1.095684
      3          6           0       -2.628312   -1.776496   -0.794694
      4          6           0       -1.443419    0.291302   -0.317478
      5          6           0       -2.286266    0.493718    0.786589
      6          6           0       -3.456388   -1.564005    0.305428
      7          6           0       -0.350743    1.286179   -0.660727
      8          6           0        0.748763    1.394573    0.406038
      9          6           0        1.416260    0.059830    0.652816
     10          8           0        1.815568   -0.522149   -0.512634
     11          6           0        2.477559   -1.788991   -0.382763
     12          8           0       -0.954275    2.572253   -0.853911
     13          6           0        1.816531    2.425501    0.037505
     14          8           0        1.613322   -0.401125    1.770191
     15          6           0        3.964876   -1.580760   -0.169072
     16          1           0       -0.988858   -1.041347   -1.966811
     17          1           0       -3.930314   -0.264119    1.955489
     18          1           0       -2.760865   -2.663015   -1.409684
     19          1           0       -2.168005    1.375877    1.413498
     20          1           0       -4.233664   -2.283789    0.548660
     21          1           0        0.091141    1.018001   -1.628255
     22          1           0        0.301547    1.715818    1.356019
     23          1           0        2.312570   -2.332523   -1.318823
     24          1           0        2.035606   -2.390390    0.419920
     25          1           0       -1.847432    2.421165   -1.211127
     26          1           0        1.392378    3.433270   -0.014470
     27          1           0        2.618932    2.437898    0.783553
     28          1           0        2.273603    2.197772   -0.931822
     29          1           0        4.389379   -0.980845   -0.980778
     30          1           0        4.488819   -2.539798   -0.127495
     31          1           0        4.156076   -1.037263    0.761579
 ---------------------------------------------------------------------

 SCF Done:  E(RwB97XD) =  -692.444802726     A.U. after   16 cycles

      1  C    Isotropic =    69.1130   Anisotropy =   159.3788

      2  C    Isotropic =    69.8509   Anisotropy =   179.7351

      3  C    Isotropic =    70.8535   Anisotropy =   176.4266

      4  C    Isotropic =    53.1179   Anisotropy =   187.6115

      5  C    Isotropic =    71.6487   Anisotropy =   176.4617

      6  C    Isotropic =    70.2278   Anisotropy =   176.1599

      7  C    Isotropic =   119.2384   Anisotropy =    25.5939

      8  C    Isotropic =   145.4931   Anisotropy =    28.2191

      9  C    Isotropic =    20.4389   Anisotropy =   103.8144

     10  O    Isotropic =   135.0958   Anisotropy =   168.7240

     11  C    Isotropic =   137.7646   Anisotropy =    66.2043

     12  O    Isotropic =   270.5093   Anisotropy =    47.4718

     13  C    Isotropic =   180.0979   Anisotropy =    27.4040

     14  O    Isotropic =   -48.0926   Anisotropy =   530.6642

     15  C    Isotropic =   181.6752   Anisotropy =    26.6996

     16  H    Isotropic =    23.8208   Anisotropy =     7.2142

     17  H    Isotropic =    23.6817   Anisotropy =     5.1805

     18  H    Isotropic =    23.8459   Anisotropy =     5.0747

     19  H    Isotropic =    23.4192   Anisotropy =     9.2430

     20  H    Isotropic =    23.8776   Anisotropy =     4.1384

     21  H    Isotropic =    26.7147   Anisotropy =     6.0728

     22  H    Isotropic =    28.3998   Anisotropy =     5.5110

     23  H    Isotropic =    27.8644   Anisotropy =     7.2861

     24  H    Isotropic =    27.3015   Anisotropy =     5.4504

     25  H    Isotropic =    30.0547   Anisotropy =    13.9274

     26  H    Isotropic =    29.7632   Anisotropy =     9.0564

     27  H    Isotropic =    30.3504   Anisotropy =     9.5486

     28  H    Isotropic =    30.3051   Anisotropy =     7.8707

     29  H    Isotropic =    30.5034   Anisotropy =     8.1001

     30  H    Isotropic =    30.7206   Anisotropy =    11.7670

     31  H    Isotropic =    30.4043   Anisotropy =     6.6962

 The electronic state is 1-A.
 Alpha  occ. eigenvalues --  -19.32887 -19.28149 -19.27536 -10.44120 -10.35945
 Alpha  occ. eigenvalues --  -10.35084 -10.31871 -10.31625 -10.30923 -10.30913
 Alpha  occ. eigenvalues --  -10.30808 -10.30776 -10.30700 -10.29072 -10.28662
 Alpha  occ. eigenvalues --   -1.21018  -1.12912  -1.12444  -0.96381  -0.91601
 Alpha  occ. eigenvalues --   -0.86507  -0.85444  -0.84913  -0.77770  -0.75819
 Alpha  occ. eigenvalues --   -0.71583  -0.70125  -0.68528  -0.64779  -0.62214
 Alpha  occ. eigenvalues --   -0.60275  -0.58006  -0.56952  -0.56106  -0.55515
 Alpha  occ. eigenvalues --   -0.53486  -0.52862  -0.51894  -0.50887  -0.50363
 Alpha  occ. eigenvalues --   -0.48680  -0.48512  -0.47335  -0.46269  -0.45347
 Alpha  occ. eigenvalues --   -0.45027  -0.44528  -0.43359  -0.42434  -0.41924
 Alpha  occ. eigenvalues --   -0.40017  -0.38889  -0.37205  -0.35976  -0.33471
 Alpha  occ. eigenvalues --   -0.32702
 Alpha virt. eigenvalues --    0.04548   0.05227   0.06713   0.06925   0.07691
 Alpha virt. eigenvalues --    0.08273   0.08482   0.09526   0.09716   0.10084
 Alpha virt. eigenvalues --    0.10647   0.10875   0.11653   0.12581   0.13055

 Mulliken atomic charges:
              1
     1  C   -0.056579
     2  C   -0.237886
     3  C   -0.302478
     4  C   -0.558162
     5  C    0.134464
     6  C   -0.134758
     7  C    0.290891
     8  C    0.130043
     9  C    0.047808
    10  O   -0.240455
    11  C    0.015122
    12  O   -0.553487
    13  C   -0.605740
    14  O   -0.464563
    15  C   -0.554747
    16  H    0.173198
    17  H    0.186510
    18  H    0.184605
    19  H    0.182815
    20  H    0.183856
    21  H    0.151436
    22  H    0.198821
    23  H    0.172440
    24  H    0.179556
    25  H    0.397758
    26  H    0.189202
    27  H    0.179476
    28  H    0.178834
    29  H    0.173968
    30  H    0.177763
    31  H    0.180287
 Sum of Mulliken atomic charges =   0.00000

 Dipole moment (field-independent basis, Debye):
    X=             -0.6886    Y=             -1.7338    Z=             -2.5837  Tot=              3.1868
 Quadrupole moment (field-independent basis, Debye-Ang):
   XX=            -79.2959   YY=            -87.5616   ZZ=            -93.0121
   XY=             -0.2369   XZ=             -6.0184   YZ=              6.2095

 Normal termination of Gaussian 09 at Tue May 17 16:57:39 2022.
