 Gaussian 09, Revision C.01,
 Gaussian 09:  EM64L-G09RevC.01 23-Sep-2011

 ----------------------------------------------------------------
 # wb97xd/6-31+g** scrf=(pcm,solvent=chloroform,smd,dovacuum) nmr
 ----------------------------------------------------------------

 99/9=1/99;
 -------
 comment
 -------
 Charge =  0 Multiplicity = 1

                         Standard orientation:
 ---------------------------------------------------------------------
 Center     Atomic      Atomic             Coordinates (Angstroms)
 Number     Number       Type             X           Y           Z
 ---------------------------------------------------------------------
      1          6           0        2.548575    0.434535   -1.154127
      2          6           0        3.696359   -0.991031    0.950459
      3          6           0        3.935412    0.419793   -0.991765
      4          6           0        1.717315   -0.262786   -0.263739
      5          6           0        2.309879   -0.976568    0.790266
      6          6           0        4.508333   -0.291588    0.060444
      7          6           0        0.212087   -0.215679   -0.430173
      8          6           0       -0.507719    0.635842    0.634108
      9          6           0       -1.926975    0.881202    0.151999
     10          8           0       -2.644170   -0.280684    0.198454
     11          6           0       -4.009424   -0.147927   -0.221390
     12          8           0       -0.241525   -1.575912   -0.368297
     13          6           0        0.158515    1.988500    0.905466
     14          8           0       -2.370563    1.953049   -0.234837
     15          6           0       -4.668049   -1.509552   -0.118152
     16          1           0        2.121645    0.996466   -1.981820
     17          1           0        4.141568   -1.553016    1.767079
     18          1           0        4.569218    0.962350   -1.688338
     19          1           0        1.687364   -1.536283    1.485331
     20          1           0        5.587876   -0.305179    0.183964
     21          1           0       -0.032018    0.143186   -1.438115
     22          1           0       -0.578427    0.094869    1.586962
     23          1           0       -4.044146    0.202212   -1.259043
     24          1           0       -4.527727    0.565625    0.428735
     25          1           0       -1.214925   -1.568889   -0.405238
     26          1           0       -0.460633    2.600817    1.571145
     27          1           0        1.130864    1.866094    1.392497
     28          1           0        0.305390    2.555157   -0.020842
     29          1           0       -4.145081   -2.238955   -0.745571
     30          1           0       -5.715123   -1.461358   -0.429799
     31          1           0       -4.621626   -1.883170    0.910121
 ---------------------------------------------------------------------

 SCF Done:  E(RwB97XD) =  -692.445192533     A.U. after   16 cycles

      1  C    Isotropic =    68.9594   Anisotropy =   162.0678

      2  C    Isotropic =    69.7558   Anisotropy =   176.2790

      3  C    Isotropic =    70.5941   Anisotropy =   173.5764

      4  C    Isotropic =    55.0758   Anisotropy =   183.4310

      5  C    Isotropic =    72.8673   Anisotropy =   182.7372

      6  C    Isotropic =    71.4137   Anisotropy =   175.9092

      7  C    Isotropic =   118.9371   Anisotropy =    34.3730

      8  C    Isotropic =   148.2727   Anisotropy =    13.5085

      9  C    Isotropic =    17.9264   Anisotropy =    94.9941

     10  O    Isotropic =   130.1067   Anisotropy =   163.5456

     11  C    Isotropic =   135.8020   Anisotropy =    60.5316

     12  O    Isotropic =   276.0422   Anisotropy =    34.4311

     13  C    Isotropic =   181.7882   Anisotropy =    12.3518

     14  O    Isotropic =   -45.5218   Anisotropy =   558.4313

     15  C    Isotropic =   182.4353   Anisotropy =    22.8803

     16  H    Isotropic =    23.8380   Anisotropy =     8.0432

     17  H    Isotropic =    23.7188   Anisotropy =     5.0790

     18  H    Isotropic =    23.8035   Anisotropy =     4.7225

     19  H    Isotropic =    23.3274   Anisotropy =     9.9017

     20  H    Isotropic =    23.7636   Anisotropy =     4.1305

     21  H    Isotropic =    26.9621   Anisotropy =     5.4537

     22  H    Isotropic =    28.6412   Anisotropy =     4.3391

     23  H    Isotropic =    27.3474   Anisotropy =     6.5083

     24  H    Isotropic =    27.4389   Anisotropy =     6.9675

     25  H    Isotropic =    27.7212   Anisotropy =    22.1513

     26  H    Isotropic =    30.7219   Anisotropy =    10.6175

     27  H    Isotropic =    31.5935   Anisotropy =     6.5677

     28  H    Isotropic =    30.7550   Anisotropy =     7.9085

     29  H    Isotropic =    30.1995   Anisotropy =     7.5783

     30  H    Isotropic =    30.2935   Anisotropy =    11.1031

     31  H    Isotropic =    30.1980   Anisotropy =     8.4255

 The electronic state is 1-A.
 Alpha  occ. eigenvalues --  -19.33756 -19.28212 -19.27570 -10.44406 -10.36381
 Alpha  occ. eigenvalues --  -10.35464 -10.32107 -10.31550 -10.30677 -10.30608
 Alpha  occ. eigenvalues --  -10.30577 -10.30538 -10.30467 -10.29100 -10.28810
 Alpha  occ. eigenvalues --   -1.21861  -1.13267  -1.12399  -0.96166  -0.91397
 Alpha  occ. eigenvalues --   -0.87387  -0.85223  -0.84645  -0.77677  -0.76177
 Alpha  occ. eigenvalues --   -0.70852  -0.70133  -0.67251  -0.66052  -0.62034
 Alpha  occ. eigenvalues --   -0.60376  -0.59918  -0.58012  -0.57200  -0.54576
 Alpha  occ. eigenvalues --   -0.54207  -0.51462  -0.51282  -0.51096  -0.50172
 Alpha  occ. eigenvalues --   -0.49531  -0.48244  -0.47603  -0.45801  -0.44936
 Alpha  occ. eigenvalues --   -0.44442  -0.44080  -0.43627  -0.43115  -0.42068
 Alpha  occ. eigenvalues --   -0.40957  -0.39530  -0.37125  -0.36230  -0.33230
 Alpha  occ. eigenvalues --   -0.32567
 Alpha virt. eigenvalues --    0.04620   0.05449   0.06847   0.07103   0.07872
 Alpha virt. eigenvalues --    0.08055   0.08427   0.09599   0.09801   0.10119
 Alpha virt. eigenvalues --    0.10762   0.11251   0.11808   0.12202   0.12655

 Mulliken atomic charges:
              1
     1  C   -0.400550
     2  C   -0.181009
     3  C   -0.210036
     4  C   -0.051180
     5  C    0.050889
     6  C   -0.168161
     7  C    0.200171
     8  C    0.345332
     9  C   -0.173778
    10  O   -0.340799
    11  C    0.092878
    12  O   -0.570159
    13  C   -0.561799
    14  O   -0.470458
    15  C   -0.689567
    16  H    0.177419
    17  H    0.184818
    18  H    0.184527
    19  H    0.180905
    20  H    0.182423
    21  H    0.160269
    22  H    0.215163
    23  H    0.178937
    24  H    0.180497
    25  H    0.406606
    26  H    0.173926
    27  H    0.180195
    28  H    0.183639
    29  H    0.176363
    30  H    0.183962
    31  H    0.178578
 Sum of Mulliken atomic charges =   0.00000

 Dipole moment (field-independent basis, Debye):
    X=             -1.4463    Y=             -0.3312    Z=              0.6589  Tot=              1.6235
 Quadrupole moment (field-independent basis, Debye-Ang):
   XX=            -71.6896   YY=           -101.1405   ZZ=            -85.3478
   XY=             10.0153   XZ=              0.8556   YZ=             -2.6458

 Normal termination of Gaussian 09 at Tue May 17 23:31:09 2022.
