 Gaussian 09, Revision C.01,
 Gaussian 09:  EM64L-G09RevC.01 23-Sep-2011

 ----------------------------------------------------------------
 # wb97xd/6-31+g** scrf=(pcm,solvent=chloroform,smd,dovacuum) nmr
 ----------------------------------------------------------------

 99/9=1/99;
 -------
 comment
 -------
 Charge =  0 Multiplicity = 1

                         Standard orientation:
 ---------------------------------------------------------------------
 Center     Atomic      Atomic             Coordinates (Angstroms)
 Number     Number       Type             X           Y           Z
 ---------------------------------------------------------------------
      1          6           0       -2.374997   -0.668649    1.159118
      2          6           0       -3.833409    0.112042   -1.086089
      3          6           0       -3.768825   -0.604625    1.216300
      4          6           0       -1.691906   -0.339896   -0.022411
      5          6           0       -2.440267    0.049266   -1.144688
      6          6           0       -4.496954   -0.213174    0.094752
      7          6           0       -0.176375   -0.386349   -0.067344
      8          6           0        0.472926    1.010400   -0.131613
      9          6           0        1.990879    0.959054   -0.182393
     10          8           0        2.487083   -0.279273    0.090619
     11          6           0        3.919349   -0.359668    0.077446
     12          8           0        0.178090   -1.145215   -1.229371
     13          6           0        0.082152    1.893382    1.055968
     14          8           0        2.687960    1.940033   -0.416243
     15          6           0        4.312072   -1.792019    0.382013
     16          1           0       -1.826420   -0.976994    2.046095
     17          1           0       -4.399432    0.409890   -1.964684
     18          1           0       -4.287125   -0.862450    2.136170
     19          1           0       -1.934882    0.293694   -2.077014
     20          1           0       -5.581730   -0.166418    0.138962
     21          1           0        0.185741   -0.946922    0.804159
     22          1           0        0.168928    1.497575   -1.067900
     23          1           0        4.333500    0.308700    0.840497
     24          1           0        4.296829   -0.074575   -0.910885
     25          1           0        1.087157   -1.463557   -1.083380
     26          1           0        0.609042    2.853723    1.025275
     27          1           0       -0.989577    2.114013    1.058843
     28          1           0        0.338198    1.410986    2.005950
     29          1           0        3.922529   -2.099126    1.358260
     30          1           0        5.399555   -1.906827    0.383262
     31          1           0        3.884751   -2.474654   -0.360003
 ---------------------------------------------------------------------

 SCF Done:  E(RwB97XD) =  -692.446399232     A.U. after   16 cycles

      1  C    Isotropic =    69.5368   Anisotropy =   160.4560

      2  C    Isotropic =    69.7910   Anisotropy =   177.0732

      3  C    Isotropic =    70.6190   Anisotropy =   174.2729

      4  C    Isotropic =    53.9075   Anisotropy =   184.5985

      5  C    Isotropic =    73.0702   Anisotropy =   180.8963

      6  C    Isotropic =    72.1824   Anisotropy =   177.4080

      7  C    Isotropic =   119.5735   Anisotropy =    33.0062

      8  C    Isotropic =   143.9981   Anisotropy =    31.2065

      9  C    Isotropic =    18.2846   Anisotropy =   100.1989

     10  O    Isotropic =   132.8518   Anisotropy =   157.7756

     11  C    Isotropic =   135.9148   Anisotropy =    60.2652

     12  O    Isotropic =   281.9651   Anisotropy =    50.5581

     13  C    Isotropic =   180.6244   Anisotropy =    23.1176

     14  O    Isotropic =   -49.5865   Anisotropy =   543.1964

     15  C    Isotropic =   182.4978   Anisotropy =    22.7594

     16  H    Isotropic =    23.8740   Anisotropy =     7.9761

     17  H    Isotropic =    23.6601   Anisotropy =     5.0452

     18  H    Isotropic =    23.8046   Anisotropy =     4.8045

     19  H    Isotropic =    23.4490   Anisotropy =     9.9273

     20  H    Isotropic =    23.6884   Anisotropy =     4.1967

     21  H    Isotropic =    26.6173   Anisotropy =     4.5817

     22  H    Isotropic =    28.6399   Anisotropy =     4.6465

     23  H    Isotropic =    27.4426   Anisotropy =     6.8833

     24  H    Isotropic =    27.3634   Anisotropy =     6.9699

     25  H    Isotropic =    28.2130   Anisotropy =    19.7500

     26  H    Isotropic =    30.5025   Anisotropy =    10.1604

     27  H    Isotropic =    31.1239   Anisotropy =     6.5727

     28  H    Isotropic =    30.7938   Anisotropy =     8.0405

     29  H    Isotropic =    30.1948   Anisotropy =     8.2028

     30  H    Isotropic =    30.2917   Anisotropy =    11.1375

     31  H    Isotropic =    30.2254   Anisotropy =     7.5798

 The electronic state is 1-A.
 Alpha  occ. eigenvalues --  -19.33679 -19.27787 -19.27756 -10.44350 -10.35827
 Alpha  occ. eigenvalues --  -10.35439 -10.32019 -10.31490 -10.30667 -10.30598
 Alpha  occ. eigenvalues --  -10.30576 -10.30523 -10.30450 -10.29276 -10.29118
 Alpha  occ. eigenvalues --   -1.21742  -1.12979  -1.12435  -0.96148  -0.91397
 Alpha  occ. eigenvalues --   -0.87261  -0.85272  -0.84646  -0.77502  -0.75858
 Alpha  occ. eigenvalues --   -0.71378  -0.70055  -0.67340  -0.66205  -0.61509
 Alpha  occ. eigenvalues --   -0.60123  -0.59872  -0.58520  -0.56871  -0.54196
 Alpha  occ. eigenvalues --   -0.53513  -0.52804  -0.51329  -0.50556  -0.50218
 Alpha  occ. eigenvalues --   -0.49493  -0.47975  -0.47438  -0.45855  -0.45597
 Alpha  occ. eigenvalues --   -0.44260  -0.44008  -0.43577  -0.42698  -0.42339
 Alpha  occ. eigenvalues --   -0.41387  -0.39271  -0.37216  -0.35784  -0.33219
 Alpha  occ. eigenvalues --   -0.32611
 Alpha virt. eigenvalues --    0.05087   0.05405   0.06294   0.07119   0.07838
 Alpha virt. eigenvalues --    0.08383   0.08482   0.09633   0.09908   0.10233
 Alpha virt. eigenvalues --    0.10718   0.11046   0.11907   0.12087   0.12314

 Mulliken atomic charges:
              1
     1  C   -0.304336
     2  C   -0.279175
     3  C   -0.321510
     4  C    0.193457
     5  C    0.189113
     6  C   -0.137485
     7  C   -0.249388
     8  C    0.228081
     9  C    0.100798
    10  O   -0.351732
    11  C    0.040197
    12  O   -0.564209
    13  C   -0.540729
    14  O   -0.495305
    15  C   -0.645477
    16  H    0.175646
    17  H    0.184912
    18  H    0.183878
    19  H    0.181028
    20  H    0.182108
    21  H    0.161515
    22  H    0.213396
    23  H    0.179629
    24  H    0.179633
    25  H    0.406341
    26  H    0.185799
    27  H    0.188350
    28  H    0.180361
    29  H    0.176522
    30  H    0.183678
    31  H    0.174902
 Sum of Mulliken atomic charges =   0.00000

 Dipole moment (field-independent basis, Debye):
    X=              0.8782    Y=             -1.6340    Z=              2.3779  Tot=              3.0159
 Quadrupole moment (field-independent basis, Debye-Ang):
   XX=            -76.0719   YY=            -98.4632   ZZ=            -86.8436
   XY=            -13.3941   XZ=              1.0900   YZ=             -2.4389

 Normal termination of Gaussian 09 at Tue May 17 16:24:20 2022.
