 Gaussian 09, Revision C.01,
 Gaussian 09:  EM64L-G09RevC.01 23-Sep-2011

 ----------------------------------------------------------------
 # wb97xd/6-31+g** scrf=(pcm,solvent=chloroform,smd,dovacuum) nmr
 ----------------------------------------------------------------

 99/9=1/99;
 -------
 comment
 -------
 Charge =  0 Multiplicity = 1

                         Standard orientation:
 ---------------------------------------------------------------------
 Center     Atomic      Atomic             Coordinates (Angstroms)
 Number     Number       Type             X           Y           Z
 ---------------------------------------------------------------------
      1          6           0       -2.298588    0.268812   -1.156280
      2          6           0       -2.453432   -1.333284    1.121638
      3          6           0       -3.193556   -0.801907   -1.111909
      4          6           0       -1.473821    0.555877   -0.058210
      5          6           0       -1.558931   -0.263020    1.079902
      6          6           0       -3.271483   -1.601193    0.026650
      7          6           0       -0.492062    1.710912   -0.127695
      8          6           0        0.895622    1.332965   -0.668465
      9          6           0        1.503225    0.179307    0.104712
     10          8           0        1.456515   -0.957723   -0.650236
     11          6           0        1.958788   -2.145943   -0.023018
     12          8           0       -0.408922    2.391780    1.123669
     13          6           0        1.870873    2.509556   -0.657688
     14          8           0        1.976453    0.249114    1.230609
     15          6           0        3.455218   -2.260933   -0.243291
     16          1           0       -2.250317    0.876809   -2.057317
     17          1           0       -2.507845   -1.959930    2.008250
     18          1           0       -3.829212   -1.014425   -1.967818
     19          1           0       -0.916977   -0.077292    1.940812
     20          1           0       -3.967309   -2.435523    0.059223
     21          1           0       -0.916808    2.457259   -0.812276
     22          1           0        0.784659    1.010841   -1.713279
     23          1           0        1.451126   -2.994412   -0.493390
     24          1           0        1.705948   -2.171852    1.043187
     25          1           0       -1.290762    2.358883    1.533352
     26          1           0        2.832030    2.216770   -1.094868
     27          1           0        1.475268    3.347353   -1.241028
     28          1           0        2.072090    2.864907    0.358710
     29          1           0        3.689224   -2.236733   -1.312680
     30          1           0        3.839218   -3.192855    0.181080
     31          1           0        3.986174   -1.422077    0.217627
 ---------------------------------------------------------------------

 SCF Done:  E(RwB97XD) =  -692.442587054     A.U. after   16 cycles

      1  C    Isotropic =    71.5298   Anisotropy =   165.4946

      2  C    Isotropic =    69.0863   Anisotropy =   177.2876

      3  C    Isotropic =    70.0040   Anisotropy =   174.3836

      4  C    Isotropic =    52.1656   Anisotropy =   183.7569

      5  C    Isotropic =    73.6551   Anisotropy =   181.9857

      6  C    Isotropic =    71.7744   Anisotropy =   177.7341

      7  C    Isotropic =   121.1993   Anisotropy =    34.4393

      8  C    Isotropic =   148.3242   Anisotropy =    15.7570

      9  C    Isotropic =    20.5418   Anisotropy =    99.9243

     10  O    Isotropic =   121.1409   Anisotropy =   146.7292

     11  C    Isotropic =   138.2519   Anisotropy =    64.9586

     12  O    Isotropic =   291.5207   Anisotropy =    78.2025

     13  C    Isotropic =   180.6477   Anisotropy =    25.4205

     14  O    Isotropic =   -44.3648   Anisotropy =   575.6916

     15  C    Isotropic =   181.5782   Anisotropy =    27.3016

     16  H    Isotropic =    23.8658   Anisotropy =     7.7397

     17  H    Isotropic =    23.7298   Anisotropy =     5.1375

     18  H    Isotropic =    23.8023   Anisotropy =     4.4707

     19  H    Isotropic =    23.5490   Anisotropy =     8.7896

     20  H    Isotropic =    23.7721   Anisotropy =     4.0652

     21  H    Isotropic =    26.5403   Anisotropy =     7.5517

     22  H    Isotropic =    28.7125   Anisotropy =     4.3703

     23  H    Isotropic =    28.4624   Anisotropy =     6.5273

     24  H    Isotropic =    27.2691   Anisotropy =     4.6816

     25  H    Isotropic =    29.9898   Anisotropy =    15.6656

     26  H    Isotropic =    30.4671   Anisotropy =     9.8179

     27  H    Isotropic =    30.4773   Anisotropy =    10.5474

     28  H    Isotropic =    29.6392   Anisotropy =     6.9979

     29  H    Isotropic =    30.6746   Anisotropy =     8.8395

     30  H    Isotropic =    30.8018   Anisotropy =    11.6836

     31  H    Isotropic =    30.3811   Anisotropy =     6.4915

 The electronic state is 1-A.
 Alpha  occ. eigenvalues --  -19.32529 -19.28029 -19.27266 -10.43681 -10.36236
 Alpha  occ. eigenvalues --  -10.34793 -10.31935 -10.31771 -10.30935 -10.30850
 Alpha  occ. eigenvalues --  -10.30835 -10.30789 -10.30664 -10.28772 -10.28525
 Alpha  occ. eigenvalues --   -1.20617  -1.13042  -1.12099  -0.96384  -0.91305
 Alpha  occ. eigenvalues --   -0.86551  -0.85387  -0.84906  -0.77707  -0.76255
 Alpha  occ. eigenvalues --   -0.70723  -0.70187  -0.68228  -0.64076  -0.62285
 Alpha  occ. eigenvalues --   -0.60840  -0.57698  -0.57373  -0.56191  -0.55364
 Alpha  occ. eigenvalues --   -0.53479  -0.52625  -0.51764  -0.50873  -0.50401
 Alpha  occ. eigenvalues --   -0.48260  -0.47876  -0.47255  -0.46002  -0.45511
 Alpha  occ. eigenvalues --   -0.45080  -0.43686  -0.43167  -0.42436  -0.41731
 Alpha  occ. eigenvalues --   -0.40360  -0.38597  -0.37752  -0.35331  -0.33474
 Alpha  occ. eigenvalues --   -0.32487
 Alpha virt. eigenvalues --    0.04853   0.04906   0.06409   0.07296   0.07469
 Alpha virt. eigenvalues --    0.08206   0.08704   0.09564   0.09874   0.10202
 Alpha virt. eigenvalues --    0.10590   0.10785   0.12007   0.12467   0.12811

 Mulliken atomic charges:
              1
     1  C    0.164027
     2  C   -0.238936
     3  C   -0.287307
     4  C   -0.314618
     5  C   -0.305331
     6  C   -0.194592
     7  C    0.303290
     8  C    0.393865
     9  C   -0.283411
    10  O   -0.187526
    11  C    0.086478
    12  O   -0.560625
    13  C   -0.650071
    14  O   -0.420197
    15  C   -0.582996
    16  H    0.177408
    17  H    0.182284
    18  H    0.185760
    19  H    0.186746
    20  H    0.183150
    21  H    0.148026
    22  H    0.201584
    23  H    0.171639
    24  H    0.178188
    25  H    0.394039
    26  H    0.175050
    27  H    0.172099
    28  H    0.191724
    29  H    0.173648
    30  H    0.176698
    31  H    0.179908
 Sum of Mulliken atomic charges =   0.00000

 Dipole moment (field-independent basis, Debye):
    X=             -2.2201    Y=             -1.9051    Z=             -2.7800  Tot=              4.0356
 Quadrupole moment (field-independent basis, Debye-Ang):
   XX=            -85.5461   YY=            -83.8857   ZZ=            -88.8547
   XY=             -3.2148   XZ=             -4.7383   YZ=             -6.9448

 Normal termination of Gaussian 09 at Tue May 17 16:11:29 2022.
