 Gaussian 09, Revision C.01,
 Gaussian 09:  EM64L-G09RevC.01 23-Sep-2011

 ----------------------------------------------------------------
 # wb97xd/6-31+g** scrf=(pcm,solvent=chloroform,smd,dovacuum) nmr
 ----------------------------------------------------------------

 99/9=1/99;
 -------
 comment
 -------
 Charge =  0 Multiplicity = 1

                         Standard orientation:
 ---------------------------------------------------------------------
 Center     Atomic      Atomic             Coordinates (Angstroms)
 Number     Number       Type             X           Y           Z
 ---------------------------------------------------------------------
      1          6           0        2.595478    0.872730    0.293047
      2          6           0        2.356511   -1.822537   -0.380074
      3          6           0        3.619536   -0.021843    0.609578
      4          6           0        1.440524    0.431504   -0.370816
      5          6           0        1.332009   -0.929692   -0.697992
      6          6           0        3.500341   -1.368068    0.271853
      7          6           0        0.331654    1.415256   -0.693017
      8          6           0       -0.689346    1.616218    0.437883
      9          6           0       -1.267529    0.318250    0.960404
     10          8           0       -1.976262   -0.349423    0.011905
     11          6           0       -2.547926   -1.583946    0.457421
     12          8           0       -0.296470    1.098405   -1.935658
     13          6           0       -1.821240    2.566972    0.050177
     14          8           0       -1.131378   -0.057895    2.119502
     15          6           0       -3.247799   -2.231288   -0.721360
     16          1           0        2.706414    1.918381    0.572826
     17          1           0        2.258556   -2.874538   -0.635413
     18          1           0        4.509066    0.330957    1.125337
     19          1           0        0.440551   -1.306923   -1.196438
     20          1           0        4.295982   -2.064510    0.523238
     21          1           0        0.808265    2.387927   -0.875704
     22          1           0       -0.158489    2.064747    1.289774
     23          1           0       -3.271211   -1.387512    1.256574
     24          1           0       -1.758440   -2.247793    0.827440
     25          1           0        0.403105    0.794033   -2.539895
     26          1           0       -2.502090    2.721183    0.894691
     27          1           0       -1.423119    3.543153   -0.245386
     28          1           0       -2.418545    2.176896   -0.780832
     29          1           0       -3.703688   -3.181825   -0.430770
     30          1           0       -2.539914   -2.412872   -1.536945
     31          1           0       -4.026850   -1.571328   -1.117116
 ---------------------------------------------------------------------

 SCF Done:  E(RwB97XD) =  -692.442964835     A.U. after   16 cycles

      1  C    Isotropic =    71.1983   Anisotropy =   164.6980

      2  C    Isotropic =    69.3120   Anisotropy =   177.5879

      3  C    Isotropic =    70.2836   Anisotropy =   175.6585

      4  C    Isotropic =    51.8305   Anisotropy =   183.0595

      5  C    Isotropic =    74.3099   Anisotropy =   179.8346

      6  C    Isotropic =    71.3762   Anisotropy =   176.1391

      7  C    Isotropic =   121.5650   Anisotropy =    36.3317

      8  C    Isotropic =   145.9108   Anisotropy =    19.8568

      9  C    Isotropic =    19.0776   Anisotropy =   105.5112

     10  O    Isotropic =   130.6596   Anisotropy =   161.7481

     11  C    Isotropic =   136.7080   Anisotropy =    58.6287

     12  O    Isotropic =   290.1781   Anisotropy =    77.1058

     13  C    Isotropic =   180.8030   Anisotropy =    26.0837

     14  O    Isotropic =   -58.9205   Anisotropy =   530.5874

     15  C    Isotropic =   182.2208   Anisotropy =    22.8644

     16  H    Isotropic =    23.8058   Anisotropy =     8.0805

     17  H    Isotropic =    23.7629   Anisotropy =     5.7294

     18  H    Isotropic =    23.7755   Anisotropy =     4.6419

     19  H    Isotropic =    23.4664   Anisotropy =     8.6093

     20  H    Isotropic =    23.8444   Anisotropy =     4.2225

     21  H    Isotropic =    26.5514   Anisotropy =     7.8123

     22  H    Isotropic =    28.7121   Anisotropy =     5.4819

     23  H    Isotropic =    27.6531   Anisotropy =     7.7094

     24  H    Isotropic =    27.5999   Anisotropy =     5.6716

     25  H    Isotropic =    29.9170   Anisotropy =    15.5185

     26  H    Isotropic =    30.3818   Anisotropy =     9.9252

     27  H    Isotropic =    30.3028   Anisotropy =    10.6040

     28  H    Isotropic =    29.6979   Anisotropy =     6.2671

     29  H    Isotropic =    30.3561   Anisotropy =    11.1621

     30  H    Isotropic =    30.1031   Anisotropy =     7.1475

     31  H    Isotropic =    30.1850   Anisotropy =     8.3359

 The electronic state is 1-A.
 Alpha  occ. eigenvalues --  -19.32444 -19.27951 -19.27239 -10.43598 -10.36157
 Alpha  occ. eigenvalues --  -10.34828 -10.31965 -10.31727 -10.30881 -10.30804
 Alpha  occ. eigenvalues --  -10.30774 -10.30742 -10.30597 -10.28988 -10.28677
 Alpha  occ. eigenvalues --   -1.20803  -1.12906  -1.12072  -0.96334  -0.91398
 Alpha  occ. eigenvalues --   -0.86764  -0.85405  -0.84853  -0.77738  -0.75318
 Alpha  occ. eigenvalues --   -0.70679  -0.70198  -0.68336  -0.65582  -0.62177
 Alpha  occ. eigenvalues --   -0.59741  -0.58606  -0.57220  -0.56297  -0.54918
 Alpha  occ. eigenvalues --   -0.53656  -0.52915  -0.51042  -0.50563  -0.50387
 Alpha  occ. eigenvalues --   -0.48698  -0.47507  -0.47187  -0.46086  -0.45554
 Alpha  occ. eigenvalues --   -0.45064  -0.43544  -0.43154  -0.42874  -0.42253
 Alpha  occ. eigenvalues --   -0.40364  -0.38611  -0.37054  -0.35606  -0.33418
 Alpha  occ. eigenvalues --   -0.32397
 Alpha virt. eigenvalues --    0.04893   0.05029   0.06517   0.07314   0.07679
 Alpha virt. eigenvalues --    0.08271   0.08681   0.09550   0.09620   0.09999
 Alpha virt. eigenvalues --    0.10670   0.11168   0.11665   0.12467   0.12544

 Mulliken atomic charges:
              1
     1  C    0.147950
     2  C   -0.265252
     3  C   -0.317989
     4  C   -0.456508
     5  C   -0.221475
     6  C   -0.127578
     7  C    0.330638
     8  C    0.276346
     9  C    0.007565
    10  O   -0.220722
    11  C    0.121622
    12  O   -0.561988
    13  C   -0.687598
    14  O   -0.450781
    15  C   -0.652505
    16  H    0.176738
    17  H    0.183720
    18  H    0.185812
    19  H    0.183526
    20  H    0.183138
    21  H    0.147861
    22  H    0.202460
    23  H    0.174826
    24  H    0.173180
    25  H    0.393710
    26  H    0.178409
    27  H    0.174901
    28  H    0.190453
    29  H    0.179303
    30  H    0.174416
    31  H    0.175823
 Sum of Mulliken atomic charges =   0.00000

 Dipole moment (field-independent basis, Debye):
    X=              1.1923    Y=             -0.1552    Z=             -1.8914  Tot=              2.2412
 Quadrupole moment (field-independent basis, Debye-Ang):
   XX=            -79.9297   YY=            -77.2544   ZZ=            -99.5259
   XY=              3.9772   XZ=              0.7162   YZ=              4.0483

 Normal termination of Gaussian 09 at Tue May 17 16:30:58 2022.
