 Gaussian 09, Revision C.01,
 Gaussian 09:  EM64L-G09RevC.01 23-Sep-2011

 ----------------------------------------------------------------
 # wb97xd/6-31+g** scrf=(pcm,solvent=chloroform,smd,dovacuum) nmr
 ----------------------------------------------------------------

 99/9=1/99;
 -------
 comment
 -------
 Charge =  0 Multiplicity = 1

                         Standard orientation:
 ---------------------------------------------------------------------
 Center     Atomic      Atomic             Coordinates (Angstroms)
 Number     Number       Type             X           Y           Z
 ---------------------------------------------------------------------
      1          6           0        1.185068    0.913187   -1.107581
      2          6           0        2.945152    0.899795    1.053142
      3          6           0        1.893077    2.069268   -0.774392
      4          6           0        1.346354   -0.266250   -0.363605
      5          6           0        2.237136   -0.256667    0.721389
      6          6           0        2.772690    2.062155    0.305417
      7          6           0        0.556343   -1.508686   -0.735767
      8          6           0       -0.762978   -1.707845    0.031182
      9          6           0       -1.729897   -0.602385   -0.350681
     10          8           0       -2.251784    0.030492    0.732879
     11          6           0       -3.159401    1.108731    0.462998
     12          8           0        1.377302   -2.673574   -0.576974
     13          6           0       -0.581924   -1.898993    1.539692
     14          8           0       -2.002453   -0.324097   -1.513669
     15          6           0       -2.390473    2.398175    0.243407
     16          1           0        0.500371    0.942199   -1.954425
     17          1           0        3.629718    0.893346    1.897506
     18          1           0        1.756235    2.975921   -1.358343
     19          1           0        2.381175   -1.153654    1.321353
     20          1           0        3.323061    2.962728    0.564775
     21          1           0        0.340783   -1.462089   -1.811234
     22          1           0       -1.223711   -2.639576   -0.326590
     23          1           0       -3.803898    1.210449    1.342251
     24          1           0       -3.810158    0.878024   -0.388140
     25          1           0        2.253390   -2.447062   -0.936687
     26          1           0       -0.226039   -0.987930    2.031124
     27          1           0       -1.536237   -2.165291    2.008489
     28          1           0        0.124735   -2.706428    1.756258
     29          1           0       -3.075580    3.240656    0.113531
     30          1           0       -1.752590    2.329097   -0.643123
     31          1           0       -1.732651    2.604135    1.094155
 ---------------------------------------------------------------------

 SCF Done:  E(RwB97XD) =  -692.444334093     A.U. after   15 cycles

      1  C    Isotropic =    69.7341   Anisotropy =   167.2465

      2  C    Isotropic =    70.3819   Anisotropy =   175.6880

      3  C    Isotropic =    70.0385   Anisotropy =   175.0020

      4  C    Isotropic =    54.8297   Anisotropy =   180.8312

      5  C    Isotropic =    71.3318   Anisotropy =   182.0963

      6  C    Isotropic =    71.4181   Anisotropy =   177.4036

      7  C    Isotropic =   121.7540   Anisotropy =    38.2484

      8  C    Isotropic =   150.7779   Anisotropy =    28.8622

      9  C    Isotropic =    21.4916   Anisotropy =    98.3424

     10  O    Isotropic =   122.8769   Anisotropy =   184.1088

     11  C    Isotropic =   137.6244   Anisotropy =    65.9455

     12  O    Isotropic =   280.0575   Anisotropy =    77.4593

     13  C    Isotropic =   187.0042   Anisotropy =     9.4013

     14  O    Isotropic =   -41.9774   Anisotropy =   565.7707

     15  C    Isotropic =   181.4930   Anisotropy =    23.9734

     16  H    Isotropic =    23.9413   Anisotropy =     7.4211

     17  H    Isotropic =    23.6858   Anisotropy =     4.8148

     18  H    Isotropic =    23.9227   Anisotropy =     4.8713

     19  H    Isotropic =    23.3349   Anisotropy =     9.2038

     20  H    Isotropic =    23.7888   Anisotropy =     4.0267

     21  H    Isotropic =    25.9258   Anisotropy =     6.1637

     22  H    Isotropic =    28.3208   Anisotropy =     6.7556

     23  H    Isotropic =    27.9848   Anisotropy =     9.0626

     24  H    Isotropic =    27.0205   Anisotropy =     7.1435

     25  H    Isotropic =    29.8988   Anisotropy =    15.5030

     26  H    Isotropic =    30.6757   Anisotropy =     5.7695

     27  H    Isotropic =    30.5485   Anisotropy =    10.4852

     28  H    Isotropic =    30.1430   Anisotropy =     9.0368

     29  H    Isotropic =    30.8547   Anisotropy =    11.7706

     30  H    Isotropic =    30.5746   Anisotropy =     6.3426

     31  H    Isotropic =    31.1670   Anisotropy =     6.4027

 The electronic state is 1-A.
 Alpha  occ. eigenvalues --  -19.32923 -19.28185 -19.27397 -10.44248 -10.36069
 Alpha  occ. eigenvalues --  -10.35079 -10.32142 -10.31602 -10.30786 -10.30763
 Alpha  occ. eigenvalues --  -10.30723 -10.30683 -10.30597 -10.28631 -10.28476
 Alpha  occ. eigenvalues --   -1.21069  -1.12964  -1.12361  -0.96281  -0.91299
 Alpha  occ. eigenvalues --   -0.86735  -0.84996  -0.84781  -0.77873  -0.75974
 Alpha  occ. eigenvalues --   -0.71611  -0.70080  -0.68027  -0.64326  -0.62529
 Alpha  occ. eigenvalues --   -0.59334  -0.58239  -0.57592  -0.56580  -0.55558
 Alpha  occ. eigenvalues --   -0.53256  -0.53064  -0.51670  -0.50867  -0.50376
 Alpha  occ. eigenvalues --   -0.48462  -0.47786  -0.46742  -0.46215  -0.45429
 Alpha  occ. eigenvalues --   -0.45055  -0.44419  -0.43220  -0.42208  -0.41730
 Alpha  occ. eigenvalues --   -0.40193  -0.38776  -0.37001  -0.36241  -0.33340
 Alpha  occ. eigenvalues --   -0.32528
 Alpha virt. eigenvalues --    0.04889   0.05107   0.06558   0.06688   0.07844
 Alpha virt. eigenvalues --    0.08135   0.08354   0.09494   0.09833   0.10259
 Alpha virt. eigenvalues --    0.10662   0.10853   0.12099   0.12517   0.12972

 Mulliken atomic charges:
              1
     1  C   -0.027220
     2  C   -0.288375
     3  C   -0.252797
     4  C   -0.043695
     5  C   -0.097769
     6  C   -0.198317
     7  C    0.085342
     8  C    0.085592
     9  C   -0.043620
    10  O   -0.225257
    11  C    0.001844
    12  O   -0.558073
    13  C   -0.579791
    14  O   -0.461534
    15  C   -0.502961
    16  H    0.176481
    17  H    0.185119
    18  H    0.182043
    19  H    0.186569
    20  H    0.182946
    21  H    0.165630
    22  H    0.212201
    23  H    0.174554
    24  H    0.179835
    25  H    0.394412
    26  H    0.181572
    27  H    0.173048
    28  H    0.179362
    29  H    0.177349
    30  H    0.180400
    31  H    0.175109
 Sum of Mulliken atomic charges =   0.00000

 Dipole moment (field-independent basis, Debye):
    X=              0.4845    Y=              2.1621    Z=              1.6646  Tot=              2.7713
 Quadrupole moment (field-independent basis, Debye-Ang):
   XX=            -80.5761   YY=            -87.6609   ZZ=            -92.2161
   XY=             -1.3408   XZ=             -3.5690   YZ=             -0.9656

 Normal termination of Gaussian 09 at Wed May 18 00:39:53 2022.
