 Gaussian 09, Revision C.01,
 Gaussian 09:  EM64L-G09RevC.01 23-Sep-2011

 ----------------------------------------------------------------
 # wb97xd/6-31+g** scrf=(pcm,solvent=chloroform,smd,dovacuum) nmr
 ----------------------------------------------------------------

 99/9=1/99;
 -------
 comment
 -------
 Charge =  0 Multiplicity = 1

                         Standard orientation:
 ---------------------------------------------------------------------
 Center     Atomic      Atomic             Coordinates (Angstroms)
 Number     Number       Type             X           Y           Z
 ---------------------------------------------------------------------
      1          6           0        1.086412    0.968948   -1.033091
      2          6           0        3.076743    0.900796    0.915309
      3          6           0        1.788128    2.131689   -0.708315
      4          6           0        1.365344   -0.244656   -0.383492
      5          6           0        2.374538   -0.261808    0.591617
      6          6           0        2.781688    2.097581    0.266981
      7          6           0        0.572181   -1.490588   -0.733573
      8          6           0       -0.713588   -1.691272    0.090761
      9          6           0       -1.730173   -0.634759   -0.298318
     10          8           0       -2.214922    0.044546    0.773009
     11          6           0       -3.177466    1.071898    0.494226
     12          8           0        1.411640   -2.644249   -0.587111
     13          6           0       -0.468906   -1.813176    1.597726
     14          8           0       -2.072053   -0.438240   -1.459639
     15          6           0       -2.474199    2.373946    0.160075
     16          1           0        0.318722    1.018330   -1.803664
     17          1           0        3.856186    0.868862    1.671898
     18          1           0        1.560526    3.063126   -1.220022
     19          1           0        2.621464   -1.189939    1.103812
     20          1           0        3.329869    3.001553    0.517980
     21          1           0        0.329175   -1.438021   -1.803153
     22          1           0       -1.161231   -2.649591   -0.209055
     23          1           0       -3.777320    1.200643    1.401097
     24          1           0       -3.863285    0.768418   -0.304967
     25          1           0        1.013389   -3.354680   -1.117683
     26          1           0       -1.397755   -2.077006    2.116295
     27          1           0        0.262996   -2.596693    1.818575
     28          1           0       -0.111661   -0.874983    2.034440
     29          1           0       -1.775945    2.650634    0.956789
     30          1           0       -3.198485    3.182534    0.027267
     31          1           0       -1.888173    2.278756   -0.759111
 ---------------------------------------------------------------------

 SCF Done:  E(RwB97XD) =  -692.444647909     A.U. after   16 cycles

      1  C    Isotropic =    70.9216   Anisotropy =   166.7510

      2  C    Isotropic =    70.6589   Anisotropy =   174.9479

      3  C    Isotropic =    70.3095   Anisotropy =   174.6782

      4  C    Isotropic =    57.1440   Anisotropy =   178.1323

      5  C    Isotropic =    71.3905   Anisotropy =   184.1189

      6  C    Isotropic =    72.0436   Anisotropy =   176.2517

      7  C    Isotropic =   121.8464   Anisotropy =    37.2441

      8  C    Isotropic =   146.4873   Anisotropy =    31.6330

      9  C    Isotropic =    21.4909   Anisotropy =    98.8355

     10  O    Isotropic =   123.3411   Anisotropy =   183.9623

     11  C    Isotropic =   137.5489   Anisotropy =    66.0584

     12  O    Isotropic =   289.1129   Anisotropy =    92.1237

     13  C    Isotropic =   186.7180   Anisotropy =     8.9972

     14  O    Isotropic =   -39.0944   Anisotropy =   560.2637

     15  C    Isotropic =   181.2935   Anisotropy =    23.5716

     16  H    Isotropic =    24.0045   Anisotropy =     7.3804

     17  H    Isotropic =    23.7027   Anisotropy =     4.7861

     18  H    Isotropic =    23.8750   Anisotropy =     5.0286

     19  H    Isotropic =    23.4475   Anisotropy =     9.5831

     20  H    Isotropic =    23.8259   Anisotropy =     4.0044

     21  H    Isotropic =    25.9504   Anisotropy =     5.9027

     22  H    Isotropic =    28.6554   Anisotropy =     6.1600

     23  H    Isotropic =    27.9609   Anisotropy =     8.9785

     24  H    Isotropic =    26.9827   Anisotropy =     7.0946

     25  H    Isotropic =    29.6339   Anisotropy =    19.6032

     26  H    Isotropic =    30.6063   Anisotropy =    10.4196

     27  H    Isotropic =    30.1397   Anisotropy =     8.8715

     28  H    Isotropic =    30.8665   Anisotropy =     5.3279

     29  H    Isotropic =    31.0253   Anisotropy =     6.5998

     30  H    Isotropic =    30.7560   Anisotropy =    11.7323

     31  H    Isotropic =    30.3388   Anisotropy =     5.8330

 The electronic state is 1-A.
 Alpha  occ. eigenvalues --  -19.32928 -19.28285 -19.27391 -10.44163 -10.36190
 Alpha  occ. eigenvalues --  -10.35096 -10.31972 -10.31600 -10.30629 -10.30523
 Alpha  occ. eigenvalues --  -10.30511 -10.30448 -10.30380 -10.28644 -10.28498
 Alpha  occ. eigenvalues --   -1.21081  -1.13041  -1.12380  -0.96143  -0.91177
 Alpha  occ. eigenvalues --   -0.86791  -0.84910  -0.84574  -0.77739  -0.75990
 Alpha  occ. eigenvalues --   -0.71998  -0.69984  -0.67360  -0.64593  -0.60961
 Alpha  occ. eigenvalues --   -0.59900  -0.59145  -0.57923  -0.57116  -0.54456
 Alpha  occ. eigenvalues --   -0.53638  -0.52634  -0.52449  -0.50214  -0.50196
 Alpha  occ. eigenvalues --   -0.48616  -0.47601  -0.46618  -0.46251  -0.45447
 Alpha  occ. eigenvalues --   -0.44657  -0.44082  -0.43520  -0.42056  -0.41748
 Alpha  occ. eigenvalues --   -0.40299  -0.38659  -0.37326  -0.35916  -0.33081
 Alpha  occ. eigenvalues --   -0.32533
 Alpha virt. eigenvalues --    0.05111   0.05258   0.06530   0.06800   0.07821
 Alpha virt. eigenvalues --    0.08126   0.08445   0.09489   0.09987   0.10342
 Alpha virt. eigenvalues --    0.10462   0.11085   0.12158   0.12411   0.12942

 Mulliken atomic charges:
              1
     1  C   -0.103810
     2  C   -0.293871
     3  C   -0.245426
     4  C   -0.105808
     5  C    0.133032
     6  C   -0.210715
     7  C    0.048774
     8  C    0.097192
     9  C   -0.080176
    10  O   -0.217197
    11  C    0.010589
    12  O   -0.575849
    13  C   -0.592396
    14  O   -0.457502
    15  C   -0.504613
    16  H    0.172451
    17  H    0.183988
    18  H    0.181023
    19  H    0.183465
    20  H    0.181888
    21  H    0.169826
    22  H    0.204008
    23  H    0.174556
    24  H    0.179096
    25  H    0.401611
    26  H    0.172573
    27  H    0.177763
    28  H    0.182810
    29  H    0.176051
    30  H    0.177307
    31  H    0.179360
 Sum of Mulliken atomic charges =   0.00000

 Dipole moment (field-independent basis, Debye):
    X=             -1.7300    Y=              0.3418    Z=              1.2669  Tot=              2.1714
 Quadrupole moment (field-independent basis, Debye-Ang):
   XX=            -88.8033   YY=            -76.4687   ZZ=            -92.3308
   XY=              1.6327   XZ=             -1.4379   YZ=              1.8603

 Normal termination of Gaussian 09 at Tue May 17 21:46:50 2022.
