 Gaussian 09, Revision C.01,
 Gaussian 09:  EM64L-G09RevC.01 23-Sep-2011

 ----------------------------------------------------------------
 # wb97xd/6-31+g** scrf=(pcm,solvent=chloroform,smd,dovacuum) nmr
 ----------------------------------------------------------------

 99/9=1/99;
 -------
 comment
 -------
 Charge =  0 Multiplicity = 1

                         Standard orientation:
 ---------------------------------------------------------------------
 Center     Atomic      Atomic             Coordinates (Angstroms)
 Number     Number       Type             X           Y           Z
 ---------------------------------------------------------------------
      1          6           0       -2.760602    0.662086    0.937111
      2          6           0       -3.662701   -0.857887   -1.220034
      3          6           0       -4.088490    0.761442    0.516542
      4          6           0       -1.865292   -0.197399    0.281320
      5          6           0       -2.334924   -0.957686   -0.801333
      6          6           0       -4.538345    0.003040   -0.562268
      7          6           0       -0.418204   -0.277376    0.727150
      8          6           0        0.559275    0.376308   -0.270459
      9          6           0        1.972203    0.239129    0.262206
     10          8           0        2.877209    0.590598   -0.694367
     11          6           0        4.259753    0.486218   -0.322748
     12          8           0       -0.103406   -1.666991    0.878811
     13          6           0        0.258100    1.857411   -0.504869
     14          8           0        2.257258   -0.157448    1.385669
     15          6           0        4.764423   -0.921731   -0.576617
     16          1           0       -2.430184    1.261343    1.782498
     17          1           0       -4.013571   -1.457736   -2.055496
     18          1           0       -4.773180    1.428752    1.033385
     19          1           0       -1.664434   -1.644504   -1.314144
     20          1           0       -5.572831    0.077777   -0.886422
     21          1           0       -0.322948    0.179396    1.720965
     22          1           0        0.526900   -0.171506   -1.221455
     23          1           0        4.415430    0.787159    0.719566
     24          1           0        4.813225    1.194313   -0.948106
     25          1           0        0.688116   -1.703870    1.450784
     26          1           0        1.005747    2.317028   -1.160443
     27          1           0       -0.716957    1.998556   -0.980965
     28          1           0        0.265468    2.415180    0.438283
     29          1           0        4.225064   -1.649496    0.037834
     30          1           0        5.831937   -0.997582   -0.351470
     31          1           0        4.602554   -1.205416   -1.621729
 ---------------------------------------------------------------------

 SCF Done:  E(RwB97XD) =  -692.447015304     A.U. after   15 cycles

      1  C    Isotropic =    69.4540   Anisotropy =   161.8482

      2  C    Isotropic =    69.4267   Anisotropy =   175.9337

      3  C    Isotropic =    70.4737   Anisotropy =   172.7906

      4  C    Isotropic =    53.9154   Anisotropy =   184.9819

      5  C    Isotropic =    73.8982   Anisotropy =   182.6895

      6  C    Isotropic =    72.2408   Anisotropy =   177.7611

      7  C    Isotropic =   118.4755   Anisotropy =    32.2985

      8  C    Isotropic =   145.2185   Anisotropy =    35.7740

      9  C    Isotropic =    17.2905   Anisotropy =   102.0667

     10  O    Isotropic =   131.4107   Anisotropy =   164.0655

     11  C    Isotropic =   137.2712   Anisotropy =    66.1378

     12  O    Isotropic =   283.9193   Anisotropy =    43.8779

     13  C    Isotropic =   181.5049   Anisotropy =    22.0787

     14  O    Isotropic =   -31.6044   Anisotropy =   546.9265

     15  C    Isotropic =   181.5638   Anisotropy =    25.7911

     16  H    Isotropic =    23.7602   Anisotropy =     8.0855

     17  H    Isotropic =    23.7550   Anisotropy =     4.9616

     18  H    Isotropic =    23.8526   Anisotropy =     4.8020

     19  H    Isotropic =    23.3724   Anisotropy =     9.8105

     20  H    Isotropic =    23.7116   Anisotropy =     4.2337

     21  H    Isotropic =    26.6447   Anisotropy =     5.0181

     22  H    Isotropic =    28.7076   Anisotropy =     3.7296

     23  H    Isotropic =    26.8438   Anisotropy =     6.1975

     24  H    Isotropic =    27.7215   Anisotropy =     8.0674

     25  H    Isotropic =    28.0268   Anisotropy =    18.0599

     26  H    Isotropic =    30.4706   Anisotropy =     9.7069

     27  H    Isotropic =    31.2267   Anisotropy =     6.6237

     28  H    Isotropic =    30.8516   Anisotropy =     8.4613

     29  H    Isotropic =    30.2048   Anisotropy =     5.9906

     30  H    Isotropic =    30.5706   Anisotropy =    11.4568

     31  H    Isotropic =    30.3735   Anisotropy =     8.4975

 The electronic state is 1-A.
 Alpha  occ. eigenvalues --  -19.33066 -19.28274 -19.27587 -10.44530 -10.35666
 Alpha  occ. eigenvalues --  -10.35226 -10.31954 -10.31411 -10.30606 -10.30560
 Alpha  occ. eigenvalues --  -10.30528 -10.30480 -10.30411 -10.29333 -10.28770
 Alpha  occ. eigenvalues --   -1.21371  -1.13487  -1.11977  -0.96095  -0.91439
 Alpha  occ. eigenvalues --   -0.86938  -0.84964  -0.84598  -0.77310  -0.76514
 Alpha  occ. eigenvalues --   -0.71765  -0.70115  -0.67017  -0.64941  -0.61654
 Alpha  occ. eigenvalues --   -0.59782  -0.59516  -0.58391  -0.55982  -0.54476
 Alpha  occ. eigenvalues --   -0.53492  -0.53091  -0.51453  -0.51048  -0.50163
 Alpha  occ. eigenvalues --   -0.49527  -0.47751  -0.46840  -0.46491  -0.45531
 Alpha  occ. eigenvalues --   -0.45046  -0.43899  -0.43448  -0.42248  -0.41947
 Alpha  occ. eigenvalues --   -0.41143  -0.38978  -0.37147  -0.35789  -0.33175
 Alpha  occ. eigenvalues --   -0.32632
 Alpha virt. eigenvalues --    0.05106   0.05453   0.06075   0.07383   0.07838
 Alpha virt. eigenvalues --    0.08181   0.08537   0.09335   0.09614   0.10651
 Alpha virt. eigenvalues --    0.10765   0.11172   0.11441   0.11936   0.12818

 Mulliken atomic charges:
              1
     1  C   -0.369243
     2  C   -0.235017
     3  C   -0.265214
     4  C    0.225614
     5  C    0.161627
     6  C   -0.151694
     7  C   -0.238425
     8  C   -0.169403
     9  C    0.314852
    10  O   -0.272262
    11  C   -0.040725
    12  O   -0.555920
    13  C   -0.520117
    14  O   -0.537119
    15  C   -0.478252
    16  H    0.176219
    17  H    0.184459
    18  H    0.183871
    19  H    0.180728
    20  H    0.181973
    21  H    0.163693
    22  H    0.214001
    23  H    0.180125
    24  H    0.174991
    25  H    0.400649
    26  H    0.183830
    27  H    0.189370
    28  H    0.184688
    29  H    0.179817
    30  H    0.178459
    31  H    0.174422
 Sum of Mulliken atomic charges =   0.00000

 Dipole moment (field-independent basis, Debye):
    X=              1.6844    Y=              2.5693    Z=             -1.5586  Tot=              3.4449
 Quadrupole moment (field-independent basis, Debye-Ang):
   XX=            -72.4643   YY=            -91.8518   ZZ=            -90.2467
   XY=             -2.4133   XZ=             -1.6029   YZ=              5.4933

 Normal termination of Gaussian 09 at Tue May 17 17:25:22 2022.
