 Gaussian 09, Revision C.01,
 Gaussian 09:  EM64L-G09RevC.01 23-Sep-2011

 ----------------------------------------------------------------
 # wb97xd/6-31+g** scrf=(pcm,solvent=chloroform,smd,dovacuum) nmr
 ----------------------------------------------------------------

 99/9=1/99;
 -------
 comment
 -------
 Charge =  0 Multiplicity = 1

                         Standard orientation:
 ---------------------------------------------------------------------
 Center     Atomic      Atomic             Coordinates (Angstroms)
 Number     Number       Type             X           Y           Z
 ---------------------------------------------------------------------
      1          6           0        1.923568   -0.908603   -1.166241
      2          6           0        2.552944    0.383920    1.223991
      3          6           0        3.103670   -0.170347   -1.058185
      4          6           0        1.045743   -1.014962   -0.076988
      5          6           0        1.373426   -0.354303    1.118628
      6          6           0        3.418219    0.474231    0.136310
      7          6           0       -0.244854   -1.800864   -0.216528
      8          6           0       -1.440169   -0.977160   -0.720756
      9          6           0       -1.673175    0.251478    0.135898
     10          8           0       -1.166481    1.354404   -0.489628
     11          6           0       -1.280474    2.565625    0.265373
     12          8           0       -0.552592   -2.499930    0.989010
     13          6           0       -2.729106   -1.796169   -0.787674
     14          8           0       -2.234446    0.267572    1.222832
     15          6           0       -0.576083    3.666980   -0.502304
     16          1           0        1.694293   -1.398550   -2.110277
     17          1           0        2.793145    0.892166    2.154405
     18          1           0        3.777229   -0.095336   -1.908174
     19          1           0        0.701115   -0.400539    1.974984
     20          1           0        4.336118    1.050484    0.218286
     21          1           0       -0.062570   -2.596511   -0.951263
     22          1           0       -1.222770   -0.631649   -1.741092
     23          1           0       -0.808277    2.441441    1.246496
     24          1           0       -2.338591    2.818921    0.393343
     25          1           0        0.289583   -2.791176    1.379704
     26          1           0       -3.548280   -1.192313   -1.193815
     27          1           0       -2.600570   -2.670168   -1.434467
     28          1           0       -3.043759   -2.145994    0.201479
     29          1           0        0.478343    3.414557   -0.656718
     30          1           0       -0.636929    4.617586    0.034766
     31          1           0       -1.022193    3.791743   -1.494509
 ---------------------------------------------------------------------

 SCF Done:  E(RwB97XD) =  -692.443951504     A.U. after   16 cycles

      1  C    Isotropic =    71.5478   Anisotropy =   165.8648

      2  C    Isotropic =    68.9737   Anisotropy =   177.3622

      3  C    Isotropic =    69.8426   Anisotropy =   175.0925

      4  C    Isotropic =    51.6445   Anisotropy =   184.4713

      5  C    Isotropic =    74.3900   Anisotropy =   182.6580

      6  C    Isotropic =    71.5206   Anisotropy =   177.3205

      7  C    Isotropic =   120.4876   Anisotropy =    32.9702

      8  C    Isotropic =   148.5762   Anisotropy =    14.3751

      9  C    Isotropic =    20.4070   Anisotropy =   100.0154

     10  O    Isotropic =   120.5419   Anisotropy =   175.0260

     11  C    Isotropic =   137.3483   Anisotropy =    57.4651

     12  O    Isotropic =   291.2080   Anisotropy =    79.9890

     13  C    Isotropic =   181.0534   Anisotropy =    25.1613

     14  O    Isotropic =   -52.4011   Anisotropy =   577.0615

     15  C    Isotropic =   182.9301   Anisotropy =    22.9244

     16  H    Isotropic =    23.8060   Anisotropy =     7.5936

     17  H    Isotropic =    23.7932   Anisotropy =     4.9131

     18  H    Isotropic =    23.7533   Anisotropy =     4.3982

     19  H    Isotropic =    23.6422   Anisotropy =     8.5969

     20  H    Isotropic =    23.7767   Anisotropy =     3.8718

     21  H    Isotropic =    26.5859   Anisotropy =     7.4040

     22  H    Isotropic =    28.5938   Anisotropy =     4.4355

     23  H    Isotropic =    27.9546   Anisotropy =     4.6661

     24  H    Isotropic =    27.8512   Anisotropy =     7.8245

     25  H    Isotropic =    29.8970   Anisotropy =    15.6693

     26  H    Isotropic =    30.4973   Anisotropy =    10.1051

     27  H    Isotropic =    30.5191   Anisotropy =    10.4946

     28  H    Isotropic =    29.6572   Anisotropy =     7.0308

     29  H    Isotropic =    31.2263   Anisotropy =     7.3982

     30  H    Isotropic =    30.7803   Anisotropy =    11.2119

     31  H    Isotropic =    30.7810   Anisotropy =     9.0559

 The electronic state is 1-A.
 Alpha  occ. eigenvalues --  -19.32558 -19.28094 -19.27361 -10.43617 -10.36282
 Alpha  occ. eigenvalues --  -10.34792 -10.31956 -10.31771 -10.30933 -10.30861
 Alpha  occ. eigenvalues --  -10.30843 -10.30802 -10.30671 -10.28713 -10.28677
 Alpha  occ. eigenvalues --   -1.20752  -1.13096  -1.12164  -0.96389  -0.91327
 Alpha  occ. eigenvalues --   -0.86725  -0.85511  -0.84914  -0.77695  -0.75720
 Alpha  occ. eigenvalues --   -0.70362  -0.70060  -0.68183  -0.64906  -0.62315
 Alpha  occ. eigenvalues --   -0.60800  -0.58572  -0.57196  -0.56402  -0.55026
 Alpha  occ. eigenvalues --   -0.53762  -0.53063  -0.51116  -0.50484  -0.50338
 Alpha  occ. eigenvalues --   -0.48775  -0.47782  -0.47118  -0.45610  -0.45289
 Alpha  occ. eigenvalues --   -0.44710  -0.43523  -0.43211  -0.42860  -0.42419
 Alpha  occ. eigenvalues --   -0.40435  -0.38745  -0.37694  -0.35451  -0.33482
 Alpha  occ. eigenvalues --   -0.32469
 Alpha virt. eigenvalues --    0.04823   0.04913   0.06437   0.07260   0.07467
 Alpha virt. eigenvalues --    0.08389   0.08603   0.09414   0.09671   0.10214
 Alpha virt. eigenvalues --    0.10473   0.10890   0.12053   0.12379   0.12856

 Mulliken atomic charges:
              1
     1  C    0.120882
     2  C   -0.281997
     3  C   -0.300147
     4  C   -0.272545
     5  C   -0.301521
     6  C   -0.185426
     7  C    0.325767
     8  C    0.426147
     9  C   -0.234927
    10  O   -0.213941
    11  C    0.155539
    12  O   -0.561668
    13  C   -0.667041
    14  O   -0.426052
    15  C   -0.663759
    16  H    0.177261
    17  H    0.183434
    18  H    0.185643
    19  H    0.185938
    20  H    0.183071
    21  H    0.149831
    22  H    0.201880
    23  H    0.172898
    24  H    0.175925
    25  H    0.394775
    26  H    0.174717
    27  H    0.171139
    28  H    0.191986
    29  H    0.177646
    30  H    0.179379
    31  H    0.175168
 Sum of Mulliken atomic charges =   0.00000

 Dipole moment (field-independent basis, Debye):
    X=              3.0987    Y=              1.2346    Z=             -2.6788  Tot=              4.2781
 Quadrupole moment (field-independent basis, Debye-Ang):
   XX=            -89.9966   YY=            -82.7739   ZZ=            -87.8711
   XY=             -2.2812   XZ=              7.6162   YZ=              5.4991

 Normal termination of Gaussian 09 at Tue May 17 15:32:15 2022.
