 Gaussian 09, Revision C.01,
 Gaussian 09:  EM64L-G09RevC.01 23-Sep-2011

 ----------------------------------------------------------------
 # wb97xd/6-31+g** scrf=(pcm,solvent=chloroform,smd,dovacuum) nmr
 ----------------------------------------------------------------

 99/9=1/99;
 -------
 comment
 -------
 Charge =  0 Multiplicity = 1

                         Standard orientation:
 ---------------------------------------------------------------------
 Center     Atomic      Atomic             Coordinates (Angstroms)
 Number     Number       Type             X           Y           Z
 ---------------------------------------------------------------------
      1          6           0        1.920497   -0.702204   -1.214321
      2          6           0        2.760488    0.650447    1.070125
      3          6           0        3.030291    0.143279   -1.270433
      4          6           0        1.212333   -0.883081   -0.013983
      5          6           0        1.650446   -0.195322    1.127717
      6          6           0        3.448981    0.820540   -0.128273
      7          6           0       -0.013050   -1.782308    0.002612
      8          6           0       -1.236385   -1.149274   -0.686668
      9          6           0       -1.631958    0.115013    0.040887
     10          8           0       -1.795091    1.142688   -0.834690
     11          6           0       -2.124242    2.412563   -0.253414
     12          8           0       -0.316514   -2.240970    1.321743
     13          6           0       -2.437992   -2.089947   -0.720934
     14          8           0       -1.788157    0.179071    1.255186
     15          6           0       -0.860399    3.132393    0.179551
     16          1           0        1.612765   -1.223582   -2.118457
     17          1           0        3.087666    1.174285    1.964627
     18          1           0        3.569469    0.271269   -2.205464
     19          1           0        1.132825   -0.310182    2.077561
     20          1           0        4.313928    1.477049   -0.170068
     21          1           0        0.257076   -2.691418   -0.550292
     22          1           0       -0.968678   -0.889896   -1.719163
     23          1           0       -2.827677    2.298519    0.579290
     24          1           0       -2.633275    2.996086   -1.027463
     25          1           0       -0.809375   -1.526883    1.773713
     26          1           0       -3.277980   -1.622465   -1.246684
     27          1           0       -2.188593   -3.020148   -1.241533
     28          1           0       -2.787032   -2.343602    0.285950
     29          1           0       -0.339027    2.574342    0.963556
     30          1           0       -1.093820    4.130899    0.559656
     31          1           0       -0.164236    3.226819   -0.660341
 ---------------------------------------------------------------------

 SCF Done:  E(RwB97XD) =  -692.449093834     A.U. after   15 cycles

      1  C    Isotropic =    72.0067   Anisotropy =   169.2239

      2  C    Isotropic =    69.9765   Anisotropy =   176.5223

      3  C    Isotropic =    70.4869   Anisotropy =   174.6346

      4  C    Isotropic =    52.1491   Anisotropy =   181.9800

      5  C    Isotropic =    72.8640   Anisotropy =   181.5444

      6  C    Isotropic =    72.9957   Anisotropy =   175.5944

      7  C    Isotropic =   120.9431   Anisotropy =    38.7552

      8  C    Isotropic =   148.2107   Anisotropy =    12.7122

      9  C    Isotropic =    16.9600   Anisotropy =   108.8338

     10  O    Isotropic =   121.7233   Anisotropy =   149.8539

     11  C    Isotropic =   138.1387   Anisotropy =    65.5526

     12  O    Isotropic =   307.4325   Anisotropy =    31.2393

     13  C    Isotropic =   179.5998   Anisotropy =    29.3993

     14  O    Isotropic =   -25.4304   Anisotropy =   531.0691

     15  C    Isotropic =   181.7150   Anisotropy =    24.8897

     16  H    Isotropic =    23.8438   Anisotropy =     8.2023

     17  H    Isotropic =    23.7751   Anisotropy =     4.9288

     18  H    Isotropic =    23.7676   Anisotropy =     4.4556

     19  H    Isotropic =    23.7754   Anisotropy =     9.2206

     20  H    Isotropic =    23.8408   Anisotropy =     3.8930

     21  H    Isotropic =    26.7723   Anisotropy =     6.5709

     22  H    Isotropic =    28.6426   Anisotropy =     4.8353

     23  H    Isotropic =    27.1725   Anisotropy =     6.9567

     24  H    Isotropic =    28.1062   Anisotropy =     9.1730

     25  H    Isotropic =    27.0038   Anisotropy =    18.0395

     26  H    Isotropic =    30.3906   Anisotropy =     9.7636

     27  H    Isotropic =    30.2970   Anisotropy =    10.5335

     28  H    Isotropic =    29.8998   Anisotropy =     6.9743

     29  H    Isotropic =    31.0182   Anisotropy =     6.9592

     30  H    Isotropic =    31.0069   Anisotropy =    11.8136

     31  H    Isotropic =    31.3070   Anisotropy =     6.4329

 The electronic state is 1-A.
 Alpha  occ. eigenvalues --  -19.33498 -19.28608 -19.27561 -10.44771 -10.36068
 Alpha  occ. eigenvalues --  -10.35246 -10.32133 -10.31435 -10.30660 -10.30586
 Alpha  occ. eigenvalues --  -10.30530 -10.30463 -10.30352 -10.29315 -10.28741
 Alpha  occ. eigenvalues --   -1.21725  -1.13855  -1.12083  -0.96106  -0.91553
 Alpha  occ. eigenvalues --   -0.86827  -0.85404  -0.84589  -0.77875  -0.76705
 Alpha  occ. eigenvalues --   -0.71280  -0.69922  -0.67991  -0.65390  -0.61377
 Alpha  occ. eigenvalues --   -0.60818  -0.59268  -0.56835  -0.55832  -0.55195
 Alpha  occ. eigenvalues --   -0.54700  -0.53167  -0.52197  -0.50427  -0.50188
 Alpha  occ. eigenvalues --   -0.49426  -0.47503  -0.46669  -0.46518  -0.46192
 Alpha  occ. eigenvalues --   -0.45059  -0.44767  -0.42764  -0.42206  -0.42034
 Alpha  occ. eigenvalues --   -0.41377  -0.39424  -0.37044  -0.36388  -0.33153
 Alpha  occ. eigenvalues --   -0.32337
 Alpha virt. eigenvalues --    0.05006   0.05584   0.06184   0.06781   0.07344
 Alpha virt. eigenvalues --    0.08267   0.08819   0.09495   0.09725   0.10123
 Alpha virt. eigenvalues --    0.10633   0.10980   0.11826   0.12262   0.13008

 Mulliken atomic charges:
              1
     1  C   -0.102303
     2  C   -0.281961
     3  C   -0.200733
     4  C   -0.236419
     5  C    0.156081
     6  C   -0.161267
     7  C   -0.176235
     8  C    0.255932
     9  C   -0.051914
    10  O   -0.211676
    11  C   -0.035144
    12  O   -0.494778
    13  C   -0.593005
    14  O   -0.461837
    15  C   -0.489340
    16  H    0.173326
    17  H    0.181244
    18  H    0.183346
    19  H    0.166859
    20  H    0.180716
    21  H    0.166488
    22  H    0.200570
    23  H    0.181682
    24  H    0.176962
    25  H    0.390413
    26  H    0.178789
    27  H    0.179600
    28  H    0.188925
    29  H    0.181291
    30  H    0.178283
    31  H    0.176104
 Sum of Mulliken atomic charges =   0.00000

 Dipole moment (field-independent basis, Debye):
    X=             -0.7441    Y=              2.7827    Z=             -3.1851  Tot=              4.2944
 Quadrupole moment (field-independent basis, Debye-Ang):
   XX=            -85.0710   YY=            -87.5540   ZZ=            -88.8201
   XY=              1.4509   XZ=              1.4184   YZ=              7.9024

 Normal termination of Gaussian 09 at Tue May 17 19:39:10 2022.
