 Gaussian 09, Revision C.01,
 Gaussian 09:  EM64L-G09RevC.01 23-Sep-2011

 ----------------------------------------------------------------
 # wb97xd/6-31+g** scrf=(pcm,solvent=chloroform,smd,dovacuum) nmr
 ----------------------------------------------------------------

 99/9=1/99;
 -------
 comment
 -------
 Charge =  0 Multiplicity = 1

                         Standard orientation:
 ---------------------------------------------------------------------
 Center     Atomic      Atomic             Coordinates (Angstroms)
 Number     Number       Type             X           Y           Z
 ---------------------------------------------------------------------
      1          6           0        2.373111    1.250547   -0.562596
      2          6           0        3.906319   -0.829909    0.488165
      3          6           0        3.728664    1.446374   -0.292072
      4          6           0        1.767828    0.010804   -0.308721
      5          6           0        2.551568   -1.028156    0.218928
      6          6           0        4.494026    0.407113    0.233107
      7          6           0        0.292815   -0.194701   -0.602530
      8          6           0       -0.557069   -0.450975    0.651846
      9          6           0       -2.018468   -0.598414    0.281338
     10          8           0       -2.457245    0.459840   -0.457507
     11          6           0       -3.840066    0.423886   -0.839316
     12          8           0        0.172391   -1.311037   -1.491872
     13          6           0       -0.437456    0.646331    1.709721
     14          8           0       -2.725564   -1.520514    0.670271
     15          6           0       -4.696580    1.048283    0.246031
     16          1           0        1.793513    2.075954   -0.970894
     17          1           0        4.502964   -1.641507    0.896951
     18          1           0        4.188396    2.411333   -0.490586
     19          1           0        2.107486   -2.001776    0.419909
     20          1           0        5.549226    0.561210    0.443620
     21          1           0       -0.084720    0.674673   -1.153697
     22          1           0       -0.261753   -1.409270    1.099978
     23          1           0       -4.164955   -0.596965   -1.070865
     24          1           0       -3.932020    1.006919   -1.761528
     25          1           0        0.958176   -1.311006   -2.067065
     26          1           0       -1.151749    0.481935    2.524393
     27          1           0        0.564321    0.669255    2.149718
     28          1           0       -0.646584    1.634612    1.285356
     29          1           0       -4.620376    0.483609    1.180587
     30          1           0       -5.746483    1.079906   -0.058453
     31          1           0       -4.360240    2.067697    0.462026
 ---------------------------------------------------------------------

 SCF Done:  E(RwB97XD) =  -692.444900511     A.U. after   16 cycles

      1  C    Isotropic =    69.8950   Anisotropy =   161.1359

      2  C    Isotropic =    68.7159   Anisotropy =   176.8132

      3  C    Isotropic =    69.9469   Anisotropy =   173.6178

      4  C    Isotropic =    52.2686   Anisotropy =   185.6365

      5  C    Isotropic =    73.8119   Anisotropy =   181.5427

      6  C    Isotropic =    71.7410   Anisotropy =   179.4337

      7  C    Isotropic =   119.2695   Anisotropy =    28.6246

      8  C    Isotropic =   145.7311   Anisotropy =    27.2648

      9  C    Isotropic =    18.6619   Anisotropy =   103.4990

     10  O    Isotropic =   141.0580   Anisotropy =   167.9147

     11  C    Isotropic =   137.5309   Anisotropy =    66.0406

     12  O    Isotropic =   267.0968   Anisotropy =    47.2831

     13  C    Isotropic =   181.0648   Anisotropy =    22.1175

     14  O    Isotropic =   -49.7022   Anisotropy =   531.1703

     15  C    Isotropic =   181.6052   Anisotropy =    25.8114

     16  H    Isotropic =    23.7621   Anisotropy =     7.7760

     17  H    Isotropic =    23.6655   Anisotropy =     5.0697

     18  H    Isotropic =    23.8255   Anisotropy =     4.8111

     19  H    Isotropic =    23.3260   Anisotropy =     9.8785

     20  H    Isotropic =    23.6421   Anisotropy =     4.3395

     21  H    Isotropic =    26.5109   Anisotropy =     3.8110

     22  H    Isotropic =    28.6108   Anisotropy =     5.0406

     23  H    Isotropic =    26.7764   Anisotropy =     6.2785

     24  H    Isotropic =    27.6456   Anisotropy =     7.8435

     25  H    Isotropic =    29.9841   Anisotropy =    14.5938

     26  H    Isotropic =    30.6520   Anisotropy =     9.9193

     27  H    Isotropic =    31.2197   Anisotropy =     6.7807

     28  H    Isotropic =    30.6877   Anisotropy =     7.3815

     29  H    Isotropic =    30.2722   Anisotropy =     6.3857

     30  H    Isotropic =    30.5853   Anisotropy =    11.5878

     31  H    Isotropic =    30.4727   Anisotropy =     8.0338

 The electronic state is 1-A.
 Alpha  occ. eigenvalues --  -19.32653 -19.28158 -19.27306 -10.43845 -10.35950
 Alpha  occ. eigenvalues --  -10.34940 -10.31944 -10.31683 -10.30961 -10.30940
 Alpha  occ. eigenvalues --  -10.30877 -10.30850 -10.30756 -10.29428 -10.28571
 Alpha  occ. eigenvalues --   -1.20773  -1.12986  -1.12183  -0.96410  -0.91604
 Alpha  occ. eigenvalues --   -0.86658  -0.85131  -0.84924  -0.77927  -0.75814
 Alpha  occ. eigenvalues --   -0.72028  -0.70293  -0.67770  -0.64690  -0.61863
 Alpha  occ. eigenvalues --   -0.60138  -0.58670  -0.57620  -0.55493  -0.55402
 Alpha  occ. eigenvalues --   -0.53656  -0.52879  -0.52300  -0.50662  -0.49793
 Alpha  occ. eigenvalues --   -0.48838  -0.48498  -0.46994  -0.46162  -0.45412
 Alpha  occ. eigenvalues --   -0.45070  -0.44133  -0.43498  -0.42551  -0.41936
 Alpha  occ. eigenvalues --   -0.40860  -0.38622  -0.36869  -0.35994  -0.33555
 Alpha  occ. eigenvalues --   -0.32675
 Alpha virt. eigenvalues --    0.04565   0.05113   0.06717   0.07131   0.07954
 Alpha virt. eigenvalues --    0.08132   0.08636   0.09390   0.09993   0.10184
 Alpha virt. eigenvalues --    0.10328   0.10973   0.11662   0.12258   0.12913

 Mulliken atomic charges:
              1
     1  C   -0.193167
     2  C   -0.292521
     3  C   -0.298898
     4  C   -0.286538
     5  C    0.147323
     6  C   -0.131372
     7  C    0.137386
     8  C    0.052185
     9  C    0.189001
    10  O   -0.257721
    11  C   -0.048235
    12  O   -0.545792
    13  C   -0.594389
    14  O   -0.491125
    15  C   -0.507348
    16  H    0.180391
    17  H    0.186877
    18  H    0.185600
    19  H    0.184503
    20  H    0.183611
    21  H    0.159580
    22  H    0.200209
    23  H    0.180246
    24  H    0.173001
    25  H    0.401517
    26  H    0.183639
    27  H    0.186850
    28  H    0.185654
    29  H    0.179885
    30  H    0.176904
    31  H    0.172746
 Sum of Mulliken atomic charges =   0.00000

 Dipole moment (field-independent basis, Debye):
    X=              2.3370    Y=              3.5788    Z=             -0.6045  Tot=              4.3168
 Quadrupole moment (field-independent basis, Debye-Ang):
   XX=            -77.7097   YY=            -92.1027   ZZ=            -89.0039
   XY=             -9.7723   XZ=              4.2670   YZ=             -1.5017

 Normal termination of Gaussian 09 at Tue May 17 21:11:14 2022.
