 Gaussian 09, Revision C.01,
 Gaussian 09:  EM64L-G09RevC.01 23-Sep-2011

 ----------------------------------------------------------------
 # wb97xd/6-31+g** scrf=(pcm,solvent=chloroform,smd,dovacuum) nmr
 ----------------------------------------------------------------

 99/9=1/99;
 -------
 comment
 -------
 Charge =  0 Multiplicity = 1

                         Standard orientation:
 ---------------------------------------------------------------------
 Center     Atomic      Atomic             Coordinates (Angstroms)
 Number     Number       Type             X           Y           Z
 ---------------------------------------------------------------------
      1          6           0        1.712942   -1.154495   -1.138381
      2          6           0        2.680740    0.037327    1.188193
      3          6           0        2.986478   -0.581851   -1.122250
      4          6           0        0.905380   -1.139801    0.010603
      5          6           0        1.407450   -0.534826    1.173415
      6          6           0        3.469493    0.014044    0.040555
      7          6           0       -0.489327   -1.737821   -0.037917
      8          6           0       -1.516183   -0.824698   -0.729872
      9          6           0       -1.691840    0.475247    0.030377
     10          8           0       -0.868940    1.433544   -0.481365
     11          6           0       -0.904873    2.681081    0.219756
     12          8           0       -0.900732   -2.125483    1.272208
     13          6           0       -2.878464   -1.500594   -0.899267
     14          8           0       -2.477155    0.648248    0.953319
     15          6           0        0.150764    3.588549   -0.380853
     16          1           0        1.354369   -1.612014   -2.057626
     17          1           0        3.054691    0.499920    2.097664
     18          1           0        3.601944   -0.600242   -2.017811
     19          1           0        0.803251   -0.505486    2.078782
     20          1           0        4.460701    0.459077    0.053400
     21          1           0       -0.412206   -2.673671   -0.607538
     22          1           0       -1.163520   -0.575712   -1.740137
     23          1           0       -0.690470    2.520146    1.282373
     24          1           0       -1.895168    3.135659    0.106823
     25          1           0       -1.707057   -2.660653    1.194070
     26          1           0       -3.565308   -0.845791   -1.447353
     27          1           0       -2.781394   -2.434285   -1.462715
     28          1           0       -3.349650   -1.728300    0.062592
     29          1           0        1.143296    3.133653   -0.295316
     30          1           0        0.162534    4.559673    0.121697
     31          1           0       -0.036766    3.744581   -1.448347
 ---------------------------------------------------------------------

 SCF Done:  E(RwB97XD) =  -692.445392833     A.U. after   16 cycles

      1  C    Isotropic =    72.2151   Anisotropy =   167.2862

      2  C    Isotropic =    70.2839   Anisotropy =   177.2090

      3  C    Isotropic =    70.8027   Anisotropy =   176.1649

      4  C    Isotropic =    53.4805   Anisotropy =   181.7624

      5  C    Isotropic =    73.3397   Anisotropy =   183.4120

      6  C    Isotropic =    72.1988   Anisotropy =   175.0826

      7  C    Isotropic =   120.4436   Anisotropy =    30.4251

      8  C    Isotropic =   147.3626   Anisotropy =    10.0333

      9  C    Isotropic =    20.7568   Anisotropy =    99.2998

     10  O    Isotropic =   122.2251   Anisotropy =   172.2403

     11  C    Isotropic =   137.5019   Anisotropy =    57.6710

     12  O    Isotropic =   307.7327   Anisotropy =    53.9434

     13  C    Isotropic =   180.5783   Anisotropy =    26.9561

     14  O    Isotropic =   -55.6833   Anisotropy =   578.6542

     15  C    Isotropic =   182.9334   Anisotropy =    22.4714

     16  H    Isotropic =    23.8459   Anisotropy =     7.9969

     17  H    Isotropic =    23.7842   Anisotropy =     4.7954

     18  H    Isotropic =    23.7175   Anisotropy =     4.5049

     19  H    Isotropic =    23.6563   Anisotropy =     9.1994

     20  H    Isotropic =    23.8748   Anisotropy =     3.8147

     21  H    Isotropic =    26.5556   Anisotropy =     7.0544

     22  H    Isotropic =    28.5573   Anisotropy =     4.7237

     23  H    Isotropic =    27.9351   Anisotropy =     5.1275

     24  H    Isotropic =    27.8428   Anisotropy =     8.0747

     25  H    Isotropic =    29.1634   Anisotropy =    18.3980

     26  H    Isotropic =    30.3860   Anisotropy =    10.2838

     27  H    Isotropic =    30.6561   Anisotropy =    10.4238

     28  H    Isotropic =    29.9337   Anisotropy =     7.0827

     29  H    Isotropic =    31.3338   Anisotropy =     8.2528

     30  H    Isotropic =    30.8116   Anisotropy =    11.3857

     31  H    Isotropic =    30.8525   Anisotropy =     8.7046

 The electronic state is 1-A.
 Alpha  occ. eigenvalues --  -19.32564 -19.28360 -19.27402 -10.43673 -10.36477
 Alpha  occ. eigenvalues --  -10.34798 -10.31883 -10.31651 -10.30681 -10.30583
 Alpha  occ. eigenvalues --  -10.30479 -10.30362 -10.30343 -10.29159 -10.28637
 Alpha  occ. eigenvalues --   -1.20807  -1.13295  -1.12203  -0.96140  -0.91264
 Alpha  occ. eigenvalues --   -0.86719  -0.85531  -0.84570  -0.77935  -0.75738
 Alpha  occ. eigenvalues --   -0.70330  -0.70063  -0.67525  -0.65175  -0.61923
 Alpha  occ. eigenvalues --   -0.60425  -0.58999  -0.57730  -0.55720  -0.55439
 Alpha  occ. eigenvalues --   -0.54393  -0.52568  -0.51690  -0.50237  -0.50148
 Alpha  occ. eigenvalues --   -0.48802  -0.47788  -0.47186  -0.45221  -0.44957
 Alpha  occ. eigenvalues --   -0.44654  -0.43663  -0.43337  -0.42957  -0.42039
 Alpha  occ. eigenvalues --   -0.40630  -0.38882  -0.37658  -0.35683  -0.33113
 Alpha  occ. eigenvalues --   -0.32225
 Alpha virt. eigenvalues --    0.05172   0.05370   0.06409   0.07157   0.07361
 Alpha virt. eigenvalues --    0.08523   0.08637   0.09473   0.09695   0.10206
 Alpha virt. eigenvalues --    0.10604   0.10911   0.11852   0.12735   0.12931

 Mulliken atomic charges:
              1
     1  C   -0.094215
     2  C   -0.186864
     3  C   -0.255200
     4  C   -0.322975
     5  C   -0.038604
     6  C   -0.152524
     7  C    0.213284
     8  C    0.270714
     9  C   -0.072338
    10  O   -0.226678
    11  C    0.126174
    12  O   -0.572468
    13  C   -0.653725
    14  O   -0.447499
    15  C   -0.674671
    16  H    0.174759
    17  H    0.181943
    18  H    0.183750
    19  H    0.181397
    20  H    0.180518
    21  H    0.159622
    22  H    0.201172
    23  H    0.173247
    24  H    0.175662
    25  H    0.405048
    26  H    0.181702
    27  H    0.174949
    28  H    0.180637
    29  H    0.179149
    30  H    0.179070
    31  H    0.174964
 Sum of Mulliken atomic charges =   0.00000

 Dipole moment (field-independent basis, Debye):
    X=              0.5355    Y=             -0.0409    Z=             -3.3340  Tot=              3.3770
 Quadrupole moment (field-independent basis, Debye-Ang):
   XX=            -88.8736   YY=            -79.7429   ZZ=            -89.2592
   XY=              9.0583   XZ=              5.1667   YZ=              5.9275

 Normal termination of Gaussian 09 at Tue May 17 16:50:12 2022.
