 Gaussian 09, Revision C.01,
 Gaussian 09:  EM64L-G09RevC.01 23-Sep-2011

 ----------------------------------------------------------------
 # wb97xd/6-31+g** scrf=(pcm,solvent=chloroform,smd,dovacuum) nmr
 ----------------------------------------------------------------

 99/9=1/99;
 -------
 comment
 -------
 Charge =  0 Multiplicity = 1

                         Standard orientation:
 ---------------------------------------------------------------------
 Center     Atomic      Atomic             Coordinates (Angstroms)
 Number     Number       Type             X           Y           Z
 ---------------------------------------------------------------------
      1          6           0       -2.288772    0.215007   -1.205048
      2          6           0       -2.836198   -1.268356    1.086913
      3          6           0       -3.231321   -0.814326   -1.246796
      4          6           0       -1.604789    0.518265   -0.015272
      5          6           0       -1.893325   -0.238712    1.130102
      6          6           0       -3.503928   -1.556423   -0.100725
      7          6           0       -0.563999    1.625628   -0.014184
      8          6           0        0.756235    1.216731   -0.694075
      9          6           0        1.403930    0.082885    0.067594
     10          8           0        1.883317   -0.858142   -0.789952
     11          6           0        2.517211   -1.992821   -0.181800
     12          8           0       -0.354463    2.156935    1.295663
     13          6           0        1.748773    2.374073   -0.773264
     14          8           0        1.504274    0.052272    1.289027
     15          6           0        3.985678   -1.701357    0.063244
     16          1           0       -2.094270    0.784518   -2.111621
     17          1           0       -3.050071   -1.843105    1.984432
     18          1           0       -3.754856   -1.034885   -2.173419
     19          1           0       -1.389047   -0.034475    2.072059
     20          1           0       -4.239167   -2.356043   -0.131038
     21          1           0       -0.994694    2.459937   -0.583178
     22          1           0        0.537428    0.871796   -1.712991
     23          1           0        2.006265   -2.286689    0.742328
     24          1           0        2.419298   -2.828021   -0.882983
     25          1           0        0.248422    1.545662    1.764970
     26          1           0        2.662416    2.063847   -1.292512
     27          1           0        1.318748    3.218548   -1.321377
     28          1           0        2.044794    2.725468    0.221212
     29          1           0        4.492198   -2.579445    0.473624
     30          1           0        4.109780   -0.867877    0.761816
     31          1           0        4.480747   -1.411314   -0.869348
 ---------------------------------------------------------------------

 SCF Done:  E(RwB97XD) =  -692.448156929     A.U. after   15 cycles

      1  C    Isotropic =    72.1973   Anisotropy =   168.7732

      2  C    Isotropic =    69.7703   Anisotropy =   175.0180

      3  C    Isotropic =    70.2676   Anisotropy =   173.6500

      4  C    Isotropic =    51.8425   Anisotropy =   182.1586

      5  C    Isotropic =    73.4601   Anisotropy =   180.8825

      6  C    Isotropic =    73.4080   Anisotropy =   175.5027

      7  C    Isotropic =   120.5490   Anisotropy =    37.6269

      8  C    Isotropic =   148.0003   Anisotropy =    16.4784

      9  C    Isotropic =    16.8151   Anisotropy =   108.1871

     10  O    Isotropic =   124.3384   Anisotropy =   150.0490

     11  C    Isotropic =   138.0984   Anisotropy =    65.6921

     12  O    Isotropic =   308.8478   Anisotropy =    28.1807

     13  C    Isotropic =   179.3345   Anisotropy =    29.1764

     14  O    Isotropic =   -25.8305   Anisotropy =   528.7715

     15  C    Isotropic =   181.7946   Anisotropy =    26.1435

     16  H    Isotropic =    23.8719   Anisotropy =     8.3988

     17  H    Isotropic =    23.7753   Anisotropy =     5.1664

     18  H    Isotropic =    23.7800   Anisotropy =     4.5257

     19  H    Isotropic =    23.7440   Anisotropy =     9.7058

     20  H    Isotropic =    23.8314   Anisotropy =     4.0605

     21  H    Isotropic =    26.8415   Anisotropy =     6.6388

     22  H    Isotropic =    28.7270   Anisotropy =     4.6820

     23  H    Isotropic =    27.3200   Anisotropy =     5.0573

     24  H    Isotropic =    28.1709   Anisotropy =     7.5639

     25  H    Isotropic =    26.7260   Anisotropy =    18.5095

     26  H    Isotropic =    30.3427   Anisotropy =     9.2522

     27  H    Isotropic =    30.2148   Anisotropy =    10.5045

     28  H    Isotropic =    29.8639   Anisotropy =     6.7528

     29  H    Isotropic =    30.7451   Anisotropy =    11.6447

     30  H    Isotropic =    30.3667   Anisotropy =     5.9524

     31  H    Isotropic =    30.5496   Anisotropy =     8.7986

 The electronic state is 1-A.
 Alpha  occ. eigenvalues --  -19.33502 -19.28664 -19.27460 -10.44831 -10.35988
 Alpha  occ. eigenvalues --  -10.35272 -10.32154 -10.31395 -10.30632 -10.30556
 Alpha  occ. eigenvalues --  -10.30502 -10.30435 -10.30326 -10.29363 -10.28830
 Alpha  occ. eigenvalues --   -1.21746  -1.13893  -1.11999  -0.96067  -0.91566
 Alpha  occ. eigenvalues --   -0.86855  -0.85419  -0.84556  -0.77796  -0.76674
 Alpha  occ. eigenvalues --   -0.71460  -0.69894  -0.67946  -0.65339  -0.61451
 Alpha  occ. eigenvalues --   -0.60876  -0.58718  -0.57657  -0.55591  -0.55211
 Alpha  occ. eigenvalues --   -0.54736  -0.52734  -0.52235  -0.50421  -0.50148
 Alpha  occ. eigenvalues --   -0.48676  -0.48619  -0.46849  -0.46554  -0.46265
 Alpha  occ. eigenvalues --   -0.44947  -0.44532  -0.42724  -0.42255  -0.42043
 Alpha  occ. eigenvalues --   -0.41452  -0.39408  -0.37048  -0.36313  -0.33119
 Alpha  occ. eigenvalues --   -0.32300
 Alpha virt. eigenvalues --    0.05084   0.05638   0.06187   0.06603   0.07553
 Alpha virt. eigenvalues --    0.08332   0.08874   0.09407   0.09694   0.10257
 Alpha virt. eigenvalues --    0.10576   0.10942   0.11815   0.11851   0.12885

 Mulliken atomic charges:
              1
     1  C   -0.043812
     2  C   -0.325277
     3  C   -0.249721
     4  C   -0.203547
     5  C    0.138665
     6  C   -0.164751
     7  C   -0.140102
     8  C    0.235428
     9  C   -0.041134
    10  O   -0.224440
    11  C    0.002157
    12  O   -0.496980
    13  C   -0.575755
    14  O   -0.469520
    15  C   -0.522988
    16  H    0.173188
    17  H    0.183200
    18  H    0.183535
    19  H    0.165466
    20  H    0.180991
    21  H    0.163858
    22  H    0.200847
    23  H    0.182735
    24  H    0.175671
    25  H    0.389171
    26  H    0.179079
    27  H    0.180339
    28  H    0.189379
    29  H    0.178816
    30  H    0.180304
    31  H    0.175198
 Sum of Mulliken atomic charges =   0.00000

 Dipole moment (field-independent basis, Debye):
    X=              1.7525    Y=             -2.4706    Z=             -3.1491  Tot=              4.3694
 Quadrupole moment (field-independent basis, Debye-Ang):
   XX=            -83.9531   YY=            -87.5346   ZZ=            -88.7778
   XY=              1.8408   XZ=              1.2172   YZ=             -7.8559

 Normal termination of Gaussian 09 at Tue May 17 22:20:47 2022.
