 Gaussian 09, Revision C.01,
 Gaussian 09:  EM64L-G09RevC.01 23-Sep-2011

 ----------------------------------------------------------------
 # wb97xd/6-31+g** scrf=(pcm,solvent=chloroform,smd,dovacuum) nmr
 ----------------------------------------------------------------

 99/9=1/99;
 -------
 comment
 -------
 Charge =  0 Multiplicity = 1

                         Standard orientation:
 ---------------------------------------------------------------------
 Center     Atomic      Atomic             Coordinates (Angstroms)
 Number     Number       Type             X           Y           Z
 ---------------------------------------------------------------------
      1          6           0        0.988027   -1.408847    0.501085
      2          6           0        3.434270   -0.587902   -0.553030
      3          6           0        1.884577   -2.352026   -0.004652
      4          6           0        1.302614   -0.040765    0.486037
      5          6           0        2.538825    0.356216   -0.047838
      6          6           0        3.106862   -1.941362   -0.531263
      7          6           0        0.312700    0.969673    1.035681
      8          6           0       -0.600699    1.646635    0.000064
      9          6           0       -1.493165    0.631185   -0.685505
     10          8           0       -2.259987   -0.023945    0.234392
     11          6           0       -3.155725   -0.991092   -0.328027
     12          8           0        1.006665    1.976845    1.784336
     13          6           0        0.142649    2.503594   -1.027538
     14          8           0       -1.556159    0.445940   -1.893321
     15          6           0       -3.895787   -1.665648    0.810302
     16          1           0        0.038996   -1.753558    0.907139
     17          1           0        4.385843   -0.265547   -0.968072
     18          1           0        1.627791   -3.408206    0.009615
     19          1           0        2.810793    1.409946   -0.079470
     20          1           0        3.802894   -2.675724   -0.928145
     21          1           0       -0.310440    0.455790    1.778659
     22          1           0       -1.267326    2.338627    0.533982
     23          1           0       -2.587826   -1.738818   -0.893041
     24          1           0       -3.870319   -0.489788   -0.990168
     25          1           0        1.721601    1.526376    2.268089
     26          1           0       -0.571376    3.051519   -1.653261
     27          1           0        0.788625    3.240874   -0.540766
     28          1           0        0.754015    1.896254   -1.702567
     29          1           0       -3.191050   -2.151965    1.492997
     30          1           0       -4.595189   -2.415803    0.430932
     31          1           0       -4.452077   -0.928671    1.398925
 ---------------------------------------------------------------------

 SCF Done:  E(RwB97XD) =  -692.445023839     A.U. after   16 cycles

      1  C    Isotropic =    71.1186   Anisotropy =   163.7800

      2  C    Isotropic =    70.2634   Anisotropy =   176.4422

      3  C    Isotropic =    70.0627   Anisotropy =   174.4165

      4  C    Isotropic =    55.3256   Anisotropy =   180.1321

      5  C    Isotropic =    71.0770   Anisotropy =   180.5379

      6  C    Isotropic =    71.1070   Anisotropy =   177.0564

      7  C    Isotropic =   122.4101   Anisotropy =    39.2097

      8  C    Isotropic =   151.5829   Anisotropy =    27.5872

      9  C    Isotropic =    20.7005   Anisotropy =    95.1837

     10  O    Isotropic =   129.6628   Anisotropy =   171.5970

     11  C    Isotropic =   136.3396   Anisotropy =    58.0837

     12  O    Isotropic =   278.8190   Anisotropy =    74.5222

     13  C    Isotropic =   187.0257   Anisotropy =    10.9738

     14  O    Isotropic =   -55.8706   Anisotropy =   576.9921

     15  C    Isotropic =   182.3073   Anisotropy =    22.8910

     16  H    Isotropic =    23.9349   Anisotropy =     7.5482

     17  H    Isotropic =    23.6893   Anisotropy =     5.0582

     18  H    Isotropic =    23.8930   Anisotropy =     5.3155

     19  H    Isotropic =    23.3530   Anisotropy =     9.5729

     20  H    Isotropic =    23.7980   Anisotropy =     4.1065

     21  H    Isotropic =    25.8908   Anisotropy =     7.3633

     22  H    Isotropic =    28.2655   Anisotropy =     6.4479

     23  H    Isotropic =    27.5431   Anisotropy =     5.7615

     24  H    Isotropic =    27.5231   Anisotropy =     7.4156

     25  H    Isotropic =    29.9555   Anisotropy =    15.0826

     26  H    Isotropic =    30.6503   Anisotropy =    11.0815

     27  H    Isotropic =    30.1080   Anisotropy =     8.9407

     28  H    Isotropic =    30.6656   Anisotropy =     6.7141

     29  H    Isotropic =    30.1863   Anisotropy =     7.3581

     30  H    Isotropic =    30.3402   Anisotropy =    11.0135

     31  H    Isotropic =    30.2457   Anisotropy =     8.5830

 The electronic state is 1-A.
 Alpha  occ. eigenvalues --  -19.32817 -19.28223 -19.27792 -10.44143 -10.36181
 Alpha  occ. eigenvalues --  -10.35071 -10.32092 -10.31713 -10.30910 -10.30843
 Alpha  occ. eigenvalues --  -10.30777 -10.30762 -10.30645 -10.28885 -10.28374
 Alpha  occ. eigenvalues --   -1.21118  -1.12973  -1.12573  -0.96358  -0.91391
 Alpha  occ. eigenvalues --   -0.86807  -0.85371  -0.84855  -0.78032  -0.75462
 Alpha  occ. eigenvalues --   -0.70539  -0.70158  -0.68223  -0.65063  -0.62639
 Alpha  occ. eigenvalues --   -0.59141  -0.58911  -0.58049  -0.56264  -0.55561
 Alpha  occ. eigenvalues --   -0.54624  -0.53163  -0.51211  -0.50494  -0.49830
 Alpha  occ. eigenvalues --   -0.49167  -0.48036  -0.46831  -0.45720  -0.44692
 Alpha  occ. eigenvalues --   -0.44455  -0.43934  -0.43582  -0.43248  -0.42311
 Alpha  occ. eigenvalues --   -0.40267  -0.38944  -0.37027  -0.36564  -0.33421
 Alpha  occ. eigenvalues --   -0.32607
 Alpha virt. eigenvalues --    0.04828   0.05026   0.06557   0.06854   0.07933
 Alpha virt. eigenvalues --    0.08102   0.08350   0.09468   0.09710   0.10128
 Alpha virt. eigenvalues --    0.10894   0.11194   0.11899   0.12155   0.12362

 Mulliken atomic charges:
              1
     1  C    0.119865
     2  C   -0.342824
     3  C   -0.310260
     4  C   -0.215129
     5  C   -0.097630
     6  C   -0.124733
     7  C    0.225609
     8  C    0.128374
     9  C   -0.129120
    10  O   -0.277033
    11  C    0.120789
    12  O   -0.556284
    13  C   -0.537192
    14  O   -0.453644
    15  C   -0.649934
    16  H    0.175620
    17  H    0.185905
    18  H    0.184693
    19  H    0.186996
    20  H    0.183521
    21  H    0.161045
    22  H    0.209733
    23  H    0.175343
    24  H    0.177064
    25  H    0.392048
    26  H    0.173763
    27  H    0.178782
    28  H    0.183064
    29  H    0.174084
    30  H    0.181082
    31  H    0.176401
 Sum of Mulliken atomic charges =   0.00000

 Dipole moment (field-independent basis, Debye):
    X=             -0.0661    Y=             -2.3145    Z=              2.0211  Tot=              3.0735
 Quadrupole moment (field-independent basis, Debye-Ang):
   XX=            -75.6095   YY=            -85.5533   ZZ=            -98.5362
   XY=              2.5135   XZ=             -3.9333   YZ=             -1.5654

 Normal termination of Gaussian 09 at Tue May 17 16:02:30 2022.
