 Gaussian 09, Revision C.01,
 Gaussian 09:  EM64L-G09RevC.01 23-Sep-2011

 -----------------------------------------------------
 # mPW1PW91/6-31+g** scrf=(PCM,solvent=chloroform) nmr
 -----------------------------------------------------

 99/9=1/99;
 -------
 comment
 -------
 Charge =  0 Multiplicity = 1

                         Standard orientation:
 ---------------------------------------------------------------------
 Center     Atomic      Atomic             Coordinates (Angstroms)
 Number     Number       Type             X           Y           Z
 ---------------------------------------------------------------------
      1          1           0        0.081069    0.472541   -2.064223
      2          6           0        0.492334   -0.048750   -1.189181
      3          6           0        1.757401   -2.100987   -0.430220
      4          6           0        2.262508    0.201351    0.639707
      5          6           0        2.754695   -1.206651    0.277389
      6          6           0        1.573192    0.860811   -0.575810
      7          6           0        1.114315   -1.381662   -1.624216
      8          1           0        0.973487   -2.381493    0.283198
      9          1           0        1.532462    0.138551    1.452611
     10          1           0        2.339924    1.034345   -1.350912
     11          1           0        1.870781   -1.192081   -2.396704
     12          1           0        2.260824   -3.019102   -0.751516
     13          1           0        0.337045   -2.009713   -2.072671
     14          6           0        3.893549   -1.775231    1.006511
     15          1           0        4.330382   -1.224450    1.836673
     16          1           0        4.023365   -2.856856    1.032998
     17          8           0        4.092972   -1.176585   -0.293779
     18          8           0        3.343656    0.989314    1.120428
     19          1           0        4.089312    0.776425    0.527214
     20          8           0        0.953763    2.094004   -0.241192
     21          6           0        1.795614    3.239702   -0.257028
     22          1           0        2.547429    3.202778    0.536403
     23          1           0        1.142341    4.104297   -0.110064
     24          1           0        2.304171    3.342239   -1.228714
     25          8           0       -0.542585   -0.327148   -0.255079
     26         14           0       -1.952686    0.535620    0.086142
     27          6           0       -1.740902    1.472664    1.710163
     28          1           0       -2.638195    2.048407    1.968295
     29          1           0       -0.899992    2.167399    1.621334
     30          1           0       -1.528876    0.794796    2.545255
     31          6           0       -3.314080   -0.808165    0.251693
     32          6           0       -2.340657    1.745212   -1.313188
     33          1           0       -3.267946    2.293340   -1.107300
     34          1           0       -2.461222    1.246092   -2.281726
     35          1           0       -1.532057    2.477435   -1.406764
     36          6           0       -3.492340   -1.547149   -1.091189
     37          1           0       -3.824879   -0.872295   -1.889467
     38          1           0       -4.249504   -2.339648   -0.998227
     39          1           0       -2.558452   -2.019437   -1.418064
     40          6           0       -4.655119   -0.155841    0.650638
     41          1           0       -4.996577    0.573357   -0.094930
     42          1           0       -4.589602    0.359328    1.616612
     43          1           0       -5.442072   -0.918894    0.741312
     44          6           0       -2.909318   -1.832918    1.332695
     45          1           0       -3.673036   -2.619732    1.423101
     46          1           0       -2.804133   -1.367866    2.320463
     47          1           0       -1.958040   -2.319451    1.089007
 ---------------------------------------------------------------------

 SCF Done:  E(RmPW1PW91) =  -1140.62596124     A.U. after   13 cycles

      1  H    Isotropic =    27.3973   Anisotropy =     3.8705

      2  C    Isotropic =   121.5925   Anisotropy =    36.8372

      3  C    Isotropic =   167.3897   Anisotropy =    29.6594

      4  C    Isotropic =   123.8345   Anisotropy =    38.6376

      5  C    Isotropic =   134.3079   Anisotropy =    59.5239

      6  C    Isotropic =   110.0970   Anisotropy =    34.4488

      7  C    Isotropic =   164.0335   Anisotropy =    18.9152

      8  H    Isotropic =    28.9734   Anisotropy =     7.3357

      9  H    Isotropic =    27.3135   Anisotropy =     5.5384

     10  H    Isotropic =    28.7390   Anisotropy =     3.2987

     11  H    Isotropic =    29.8479   Anisotropy =     8.8348

     12  H    Isotropic =    30.4686   Anisotropy =    10.6473

     13  H    Isotropic =    29.8238   Anisotropy =     9.0479

     14  C    Isotropic =   146.4592   Anisotropy =    31.5525

     15  H    Isotropic =    28.5358   Anisotropy =     9.1657

     16  H    Isotropic =    29.0194   Anisotropy =    11.3046

     17  O    Isotropic =   312.4733   Anisotropy =   124.6258

     18  O    Isotropic =   308.9347   Anisotropy =    41.0210

     19  H    Isotropic =    29.7624   Anisotropy =    14.0552

     20  O    Isotropic =   295.0599   Anisotropy =    70.6007

     21  C    Isotropic =   136.4667   Anisotropy =    85.7328

     22  H    Isotropic =    27.0769   Anisotropy =     8.9411

     23  H    Isotropic =    27.8199   Anisotropy =    10.6136

     24  H    Isotropic =    28.3103   Anisotropy =    10.3436

     25  O    Isotropic =   290.2655   Anisotropy =    21.0251

     26  Si   Isotropic =   378.3600   Anisotropy =    32.5801

     27  C    Isotropic =   198.7218   Anisotropy =     8.5247

     28  H    Isotropic =    31.7344   Anisotropy =    10.9064

     29  H    Isotropic =    30.8684   Anisotropy =    10.1584

     30  H    Isotropic =    31.3161   Anisotropy =     8.1962

     31  C    Isotropic =   172.6208   Anisotropy =     7.5865

     32  C    Isotropic =   201.2146   Anisotropy =     4.7476

     33  H    Isotropic =    31.6925   Anisotropy =    10.6799

     34  H    Isotropic =    31.4595   Anisotropy =     8.8970

     35  H    Isotropic =    31.0458   Anisotropy =     9.6030

     36  C    Isotropic =   170.4280   Anisotropy =    37.4460

     37  H    Isotropic =    30.6417   Anisotropy =     8.3483

     38  H    Isotropic =    31.0538   Anisotropy =     9.8178

     39  H    Isotropic =    30.4127   Anisotropy =     7.7578

     40  C    Isotropic =   170.3693   Anisotropy =    38.9839

     41  H    Isotropic =    30.7256   Anisotropy =     9.0487

     42  H    Isotropic =    30.7003   Anisotropy =     8.8446

     43  H    Isotropic =    30.9419   Anisotropy =    10.2256

     44  C    Isotropic =   170.3297   Anisotropy =    37.6900

     45  H    Isotropic =    31.0472   Anisotropy =     9.8029

     46  H    Isotropic =    30.5003   Anisotropy =     8.2629

     47  H    Isotropic =    30.2432   Anisotropy =     8.2153

 The electronic state is 1-A.
 Alpha  occ. eigenvalues --  -66.30032 -19.27168 -19.25296 -19.25223 -19.23096
 Alpha  occ. eigenvalues --  -10.31896 -10.30682 -10.30624 -10.30302 -10.30220
 Alpha  occ. eigenvalues --  -10.28269 -10.25461 -10.25024 -10.24360 -10.23391
 Alpha  occ. eigenvalues --  -10.23180 -10.23123 -10.22020 -10.21571  -5.33388
 Alpha  occ. eigenvalues --   -3.67311  -3.67015  -3.66983  -1.11564  -1.07332
 Alpha  occ. eigenvalues --   -1.05287  -1.02840  -0.84526  -0.81930  -0.77446
 Alpha  occ. eigenvalues --   -0.75386  -0.71770  -0.70186  -0.70057  -0.69921
 Alpha  occ. eigenvalues --   -0.69219  -0.68970  -0.63763  -0.62012  -0.59229
 Alpha  occ. eigenvalues --   -0.56384  -0.55030  -0.52497  -0.51888  -0.50987
 Alpha  occ. eigenvalues --   -0.48205  -0.48150  -0.47589  -0.46450  -0.45674
 Alpha  occ. eigenvalues --   -0.44557  -0.44347  -0.43928  -0.42794  -0.41959
 Alpha  occ. eigenvalues --   -0.41447  -0.41020  -0.40633  -0.40342  -0.39774
 Alpha  occ. eigenvalues --   -0.39396  -0.38918  -0.38527  -0.38473  -0.38076
 Alpha  occ. eigenvalues --   -0.36989  -0.36463  -0.35336  -0.33963  -0.33799
 Alpha  occ. eigenvalues --   -0.33463  -0.32844  -0.32509  -0.31327  -0.30572
 Alpha  occ. eigenvalues --   -0.29721  -0.28880  -0.26540  -0.25520
 Alpha virt. eigenvalues --   -0.00058   0.00802   0.01270   0.01518   0.02465
 Alpha virt. eigenvalues --    0.02902   0.03259   0.03791   0.03967   0.04568
 Alpha virt. eigenvalues --    0.04914   0.05685   0.05803   0.06047   0.06361

 Mulliken atomic charges:
              1
     1  H    0.151488
     2  C    0.385107
     3  C   -0.328086
     4  C    0.056210
     5  C    0.186046
     6  C   -0.612674
     7  C   -0.560965
     8  H    0.194258
     9  H    0.188019
    10  H    0.147230
    11  H    0.177487
    12  H    0.171697
    13  H    0.171703
    14  C   -0.134259
    15  H    0.184159
    16  H    0.175880
    17  O   -0.402565
    18  O   -0.533620
    19  H    0.384012
    20  O   -0.229464
    21  C   -0.163283
    22  H    0.176658
    23  H    0.160551
    24  H    0.143487
    25  O   -0.287797
    26  Si   0.710195
    27  C   -0.725421
    28  H    0.180269
    29  H    0.206150
    30  H    0.179685
    31  C    0.003080
    32  C   -0.733365
    33  H    0.186204
    34  H    0.183401
    35  H    0.205407
    36  C   -0.586668
    37  H    0.163753
    38  H    0.161250
    39  H    0.172183
    40  C   -0.543721
    41  H    0.165761
    42  H    0.168426
    43  H    0.163726
    44  C   -0.562245
    45  H    0.160720
    46  H    0.164232
    47  H    0.175697
 Sum of Mulliken atomic charges =   0.00000

 Dipole moment (field-independent basis, Debye):
    X=             -0.0572    Y=             -0.7474    Z=             -0.9563  Tot=              1.2150
 Quadrupole moment (field-independent basis, Debye-Ang):
   XX=           -129.5076   YY=           -120.5690   ZZ=           -125.7090
   XY=             -2.9312   XZ=              0.7094   YZ=             -4.7437

 Normal termination of Gaussian 09 at Tue Dec  6 18:05:58 2022.
