 Gaussian 09, Revision C.01,
 Gaussian 09:  EM64L-G09RevC.01 23-Sep-2011

 -----------------------------------------------------
 # mPW1PW91/6-31+g** scrf=(PCM,solvent=chloroform) nmr
 -----------------------------------------------------

 99/9=1/99;
 -------
 comment
 -------
 Charge =  0 Multiplicity = 1

                         Standard orientation:
 ---------------------------------------------------------------------
 Center     Atomic      Atomic             Coordinates (Angstroms)
 Number     Number       Type             X           Y           Z
 ---------------------------------------------------------------------
      1          1           0       -0.222594   -0.720388    0.815920
      2          6           0       -0.438034   -0.062457   -0.036935
      3          6           0       -2.266524   -1.663114   -0.742063
      4          6           0       -2.752032    0.211352    0.935199
      5          6           0       -3.291388   -0.715867   -0.145866
      6          6           0       -1.495010    0.951288    0.448610
      7          6           0       -1.001391   -0.906113   -1.186607
      8          1           0       -2.709789   -2.215345   -1.577643
      9          1           0       -3.517776    0.958600    1.186544
     10          1           0       -1.081725    1.535811    1.284392
     11          1           0       -0.238741   -1.614678   -1.528167
     12          1           0       -2.001763   -2.401623    0.025913
     13          1           0       -1.228127   -0.237596   -2.024416
     14          6           0       -4.519142   -0.349243   -0.859537
     15          1           0       -5.002578    0.605598   -0.655125
     16          1           0       -4.702895   -0.759498   -1.852676
     17          8           0       -4.561569   -1.308161    0.212723
     18          8           0       -2.389429   -0.542711    2.090518
     19          1           0       -3.172264   -1.068806    2.324799
     20          8           0       -1.951279    1.818492   -0.581434
     21          6           0       -1.179114    2.989819   -0.797503
     22          1           0       -1.003591    3.528445    0.146977
     23          1           0       -1.768208    3.629703   -1.461414
     24          1           0       -0.213920    2.767038   -1.262405
     25          8           0        0.744293    0.614776   -0.458614
     26         14           0        2.264449    0.581877    0.263072
     27          6           0        3.121266    2.119792   -0.411788
     28          1           0        4.138249    2.227754   -0.017005
     29          1           0        2.559837    3.019175   -0.133301
     30          1           0        3.186565    2.096956   -1.505314
     31          6           0        3.231883   -1.006977   -0.222332
     32          6           0        2.092344    0.703957    2.144622
     33          1           0        3.071389    0.651467    2.636126
     34          1           0        1.471172   -0.095405    2.565020
     35          1           0        1.633500    1.658638    2.428414
     36          6           0        2.553975   -2.265173    0.362219
     37          1           0        2.501500   -2.234573    1.457338
     38          1           0        3.121604   -3.166882    0.088922
     39          1           0        1.534329   -2.399198   -0.018473
     40          6           0        4.672115   -0.921704    0.329815
     41          1           0        4.691013   -0.843152    1.423827
     42          1           0        5.219855   -0.063299   -0.077527
     43          1           0        5.238159   -1.825284    0.060326
     44          6           0        3.291376   -1.136949   -1.759306
     45          1           0        3.831070   -2.051097   -2.047377
     46          1           0        3.815084   -0.291065   -2.221006
     47          1           0        2.290293   -1.188430   -2.202380
 ---------------------------------------------------------------------

 SCF Done:  E(RmPW1PW91) =  -1140.62352209     A.U. after   13 cycles

      1  H    Isotropic =    27.0993   Anisotropy =     8.8794

      2  C    Isotropic =   122.1689   Anisotropy =    54.2850

      3  C    Isotropic =   166.9262   Anisotropy =    26.3939

      4  C    Isotropic =   116.1726   Anisotropy =    23.2934

      5  C    Isotropic =   134.9504   Anisotropy =    55.2557

      6  C    Isotropic =   113.1143   Anisotropy =    45.4350

      7  C    Isotropic =   166.9472   Anisotropy =    27.9255

      8  H    Isotropic =    30.5707   Anisotropy =    10.1325

      9  H    Isotropic =    28.3357   Anisotropy =     5.2660

     10  H    Isotropic =    27.9585   Anisotropy =     2.1266

     11  H    Isotropic =    29.7460   Anisotropy =     9.5430

     12  H    Isotropic =    29.2869   Anisotropy =     6.2883

     13  H    Isotropic =    29.2649   Anisotropy =     3.9842

     14  C    Isotropic =   139.0240   Anisotropy =    34.4030

     15  H    Isotropic =    28.8253   Anisotropy =     9.1155

     16  H    Isotropic =    28.7799   Anisotropy =     9.7729

     17  O    Isotropic =   315.0109   Anisotropy =   136.3373

     18  O    Isotropic =   295.1193   Anisotropy =    55.2928

     19  H    Isotropic =    29.9435   Anisotropy =    18.5865

     20  O    Isotropic =   311.5859   Anisotropy =    46.2998

     21  C    Isotropic =   135.4118   Anisotropy =    84.8807

     22  H    Isotropic =    28.2602   Anisotropy =     8.8514

     23  H    Isotropic =    27.8935   Anisotropy =    10.8416

     24  H    Isotropic =    27.1904   Anisotropy =     7.1519

     25  O    Isotropic =   281.0501   Anisotropy =    38.8027

     26  Si   Isotropic =   377.7997   Anisotropy =    36.9876

     27  C    Isotropic =   198.8262   Anisotropy =     7.2278

     28  H    Isotropic =    31.6286   Anisotropy =    10.7027

     29  H    Isotropic =    31.5686   Anisotropy =     9.5837

     30  H    Isotropic =    31.2923   Anisotropy =     8.8579

     31  C    Isotropic =   171.6238   Anisotropy =     7.7863

     32  C    Isotropic =   201.4841   Anisotropy =     7.7543

     33  H    Isotropic =    31.5283   Anisotropy =    10.7530

     34  H    Isotropic =    30.9806   Anisotropy =     7.8665

     35  H    Isotropic =    31.5527   Anisotropy =     9.8900

     36  C    Isotropic =   170.2971   Anisotropy =    38.1429

     37  H    Isotropic =    30.4324   Anisotropy =     7.4622

     38  H    Isotropic =    30.9203   Anisotropy =     9.4343

     39  H    Isotropic =    30.3936   Anisotropy =     9.4005

     40  C    Isotropic =   169.3644   Anisotropy =    40.2961

     41  H    Isotropic =    30.6863   Anisotropy =     8.7706

     42  H    Isotropic =    30.7106   Anisotropy =     9.1557

     43  H    Isotropic =    30.9897   Anisotropy =    10.0124

     44  C    Isotropic =   170.3533   Anisotropy =    36.8815

     45  H    Isotropic =    31.0045   Anisotropy =     9.5679

     46  H    Isotropic =    30.5621   Anisotropy =     8.7262

     47  H    Isotropic =    30.2954   Anisotropy =     7.8777

 The electronic state is 1-A.
 Alpha  occ. eigenvalues --  -66.30434 -19.26794 -19.25967 -19.25462 -19.23456
 Alpha  occ. eigenvalues --  -10.31477 -10.30943 -10.30464 -10.30420 -10.30305
 Alpha  occ. eigenvalues --  -10.28380 -10.25419 -10.24813 -10.24712 -10.23663
 Alpha  occ. eigenvalues --  -10.23631 -10.23396 -10.22467 -10.22341  -5.33831
 Alpha  occ. eigenvalues --   -3.67741  -3.67471  -3.67419  -1.11311  -1.07478
 Alpha  occ. eigenvalues --   -1.06151  -1.03022  -0.84558  -0.82312  -0.77954
 Alpha  occ. eigenvalues --   -0.74792  -0.72126  -0.70622  -0.70262  -0.69727
 Alpha  occ. eigenvalues --   -0.69597  -0.68814  -0.64839  -0.62451  -0.57424
 Alpha  occ. eigenvalues --   -0.57239  -0.54024  -0.53791  -0.52839  -0.50291
 Alpha  occ. eigenvalues --   -0.48508  -0.48269  -0.47974  -0.46577  -0.44818
 Alpha  occ. eigenvalues --   -0.44701  -0.44594  -0.44155  -0.43257  -0.42816
 Alpha  occ. eigenvalues --   -0.42486  -0.41223  -0.40895  -0.40220  -0.39917
 Alpha  occ. eigenvalues --   -0.39626  -0.39338  -0.38935  -0.38880  -0.37352
 Alpha  occ. eigenvalues --   -0.37197  -0.36266  -0.35857  -0.34965  -0.33865
 Alpha  occ. eigenvalues --   -0.33648  -0.33232  -0.31696  -0.31408  -0.30843
 Alpha  occ. eigenvalues --   -0.29670  -0.28532  -0.27771  -0.25568
 Alpha virt. eigenvalues --   -0.00186   0.00927   0.01217   0.01468   0.02083
 Alpha virt. eigenvalues --    0.02940   0.03217   0.03752   0.04093   0.04391
 Alpha virt. eigenvalues --    0.04549   0.05394   0.05710   0.06174   0.06461

 Mulliken atomic charges:
              1
     1  H    0.160102
     2  C   -0.327272
     3  C   -0.305329
     4  C   -0.064502
     5  C   -0.297280
     6  C   -0.133567
     7  C   -0.038465
     8  H    0.171926
     9  H    0.161619
    10  H    0.148355
    11  H    0.162176
    12  H    0.188287
    13  H    0.186689
    14  C   -0.035315
    15  H    0.172819
    16  H    0.172385
    17  O   -0.357525
    18  O   -0.495267
    19  H    0.381341
    20  O   -0.224961
    21  C   -0.156750
    22  H    0.140665
    23  H    0.161004
    24  H    0.174318
    25  O   -0.298655
    26  Si   0.899174
    27  C   -0.725725
    28  H    0.186302
    29  H    0.185503
    30  H    0.188211
    31  C   -0.025951
    32  C   -0.712177
    33  H    0.187995
    34  H    0.189582
    35  H    0.187557
    36  C   -0.590294
    37  H    0.168593
    38  H    0.165416
    39  H    0.164725
    40  C   -0.523466
    41  H    0.166600
    42  H    0.168557
    43  H    0.166344
    44  C   -0.597347
    45  H    0.163119
    46  H    0.166813
    47  H    0.173669
 Sum of Mulliken atomic charges =   0.00000

 Dipole moment (field-independent basis, Debye):
    X=              1.3609    Y=              1.0429    Z=             -0.5932  Tot=              1.8143
 Quadrupole moment (field-independent basis, Debye-Ang):
   XX=           -127.7767   YY=           -122.9177   ZZ=           -126.5608
   XY=             -4.3848   XZ=              5.1842   YZ=              1.9076

 Normal termination of Gaussian 09 at Tue Dec  6 21:20:46 2022.
