 Gaussian 09, Revision C.01,
 Gaussian 09:  EM64L-G09RevC.01 23-Sep-2011

 -----------------------------------------------------
 # mPW1PW91/6-31+g** scrf=(PCM,solvent=chloroform) nmr
 -----------------------------------------------------

 99/9=1/99;
 -------
 comment
 -------
 Charge =  0 Multiplicity = 1

                         Standard orientation:
 ---------------------------------------------------------------------
 Center     Atomic      Atomic             Coordinates (Angstroms)
 Number     Number       Type             X           Y           Z
 ---------------------------------------------------------------------
      1          1           0       -0.260861    1.008786    1.882814
      2          6           0       -0.610122    0.294325    1.121706
      3          6           0       -1.954352   -1.848655    0.803877
      4          6           0       -2.170116    0.043715   -0.863667
      5          6           0       -2.877189   -1.091369   -0.135778
      6          6           0       -1.604974    1.010508    0.187115
      7          6           0       -1.321770   -0.878192    1.819479
      8          1           0       -1.164271   -2.343811    0.226686
      9          1           0       -1.326167   -0.384432   -1.426228
     10          1           0       -2.453308    1.374886    0.786577
     11          1           0       -2.108357   -0.479137    2.472915
     12          1           0       -2.524276   -2.624707    1.325400
     13          1           0       -0.602280   -1.404152    2.456774
     14          6           0       -4.113257   -1.676230   -0.666603
     15          1           0       -4.523715   -1.296004   -1.599546
     16          1           0       -4.367456   -2.707714   -0.417562
     17          8           0       -4.157410   -0.751585    0.434150
     18          8           0       -3.057603    0.715455   -1.735727
     19          1           0       -2.603674    1.546252   -1.957660
     20          8           0       -1.027008    2.105416   -0.523616
     21          6           0       -1.099005    3.346467    0.158598
     22          1           0       -2.141558    3.628610    0.368230
     23          1           0       -0.648683    4.095898   -0.497412
     24          1           0       -0.542727    3.331413    1.106278
     25          8           0        0.487965   -0.198898    0.360629
     26         14           0        2.115385    0.180079    0.552292
     27          6           0        2.390202    2.047799    0.444236
     28          1           0        3.460063    2.289461    0.457974
     29          1           0        1.931865    2.570192    1.292808
     30          1           0        1.957096    2.459557   -0.472991
     31          6           0        2.989846   -0.741116   -0.876789
     32          6           0        2.709470   -0.420678    2.247044
     33          1           0        3.759233   -0.154994    2.421497
     34          1           0        2.617194   -1.507702    2.350667
     35          1           0        2.123009    0.037366    3.053636
     36          6           0        2.674034   -2.250256   -0.805081
     37          1           0        3.035728   -2.701380    0.127246
     38          1           0        3.161486   -2.782541   -1.634930
     39          1           0        1.597171   -2.439385   -0.873781
     40          6           0        4.517683   -0.540001   -0.774308
     41          1           0        4.924181   -0.936325    0.164443
     42          1           0        4.800551    0.517949   -0.841651
     43          1           0        5.027052   -1.064004   -1.595877
     44          6           0        2.496895   -0.189695   -2.232037
     45          1           0        2.979069   -0.727633   -3.061381
     46          1           0        2.733425    0.874412   -2.352232
     47          1           0        1.413188   -0.304796   -2.345010
 ---------------------------------------------------------------------

 SCF Done:  E(RmPW1PW91) =  -1140.62648128     A.U. after   13 cycles

      1  H    Isotropic =    27.1677   Anisotropy =     3.9162

      2  C    Isotropic =   128.0467   Anisotropy =    51.2820

      3  C    Isotropic =   166.4311   Anisotropy =    30.0765

      4  C    Isotropic =   128.1105   Anisotropy =    42.5615

      5  C    Isotropic =   135.5092   Anisotropy =    59.8028

      6  C    Isotropic =   109.5676   Anisotropy =    44.0698

      7  C    Isotropic =   164.4106   Anisotropy =    20.3880

      8  H    Isotropic =    29.1267   Anisotropy =     7.1735

      9  H    Isotropic =    27.1945   Anisotropy =     6.9514

     10  H    Isotropic =    28.4276   Anisotropy =     4.9943

     11  H    Isotropic =    29.7559   Anisotropy =     8.8226

     12  H    Isotropic =    30.5582   Anisotropy =    10.9490

     13  H    Isotropic =    29.8601   Anisotropy =     8.5287

     14  C    Isotropic =   145.8753   Anisotropy =    32.6305

     15  H    Isotropic =    28.4062   Anisotropy =     9.4047

     16  H    Isotropic =    29.0175   Anisotropy =    11.3479

     17  O    Isotropic =   311.5864   Anisotropy =   121.4285

     18  O    Isotropic =   316.3995   Anisotropy =    39.6350

     19  H    Isotropic =    29.2241   Anisotropy =    18.3140

     20  O    Isotropic =   314.0919   Anisotropy =    61.7944

     21  C    Isotropic =   138.8365   Anisotropy =    81.4970

     22  H    Isotropic =    28.4222   Anisotropy =    10.5659

     23  H    Isotropic =    27.9659   Anisotropy =    10.2057

     24  H    Isotropic =    28.0438   Anisotropy =     8.3198

     25  O    Isotropic =   289.6559   Anisotropy =    22.7610

     26  Si   Isotropic =   379.4096   Anisotropy =    38.5994

     27  C    Isotropic =   199.4787   Anisotropy =    10.9087

     28  H    Isotropic =    31.6382   Anisotropy =    10.8352

     29  H    Isotropic =    31.3281   Anisotropy =     8.1525

     30  H    Isotropic =    31.2763   Anisotropy =     8.0560

     31  C    Isotropic =   173.1194   Anisotropy =     7.7315

     32  C    Isotropic =   200.1485   Anisotropy =     8.2429

     33  H    Isotropic =    31.6720   Anisotropy =    10.9042

     34  H    Isotropic =    31.4635   Anisotropy =     8.9286

     35  H    Isotropic =    31.4019   Anisotropy =     8.6592

     36  C    Isotropic =   170.5885   Anisotropy =    37.0640

     37  H    Isotropic =    30.5231   Anisotropy =     8.4928

     38  H    Isotropic =    30.9708   Anisotropy =     9.7071

     39  H    Isotropic =    30.2181   Anisotropy =     8.3474

     40  C    Isotropic =   170.4202   Anisotropy =    39.3452

     41  H    Isotropic =    30.6814   Anisotropy =     9.2350

     42  H    Isotropic =    30.6705   Anisotropy =     9.1349

     43  H    Isotropic =    30.9011   Anisotropy =    10.1807

     44  C    Isotropic =   170.2404   Anisotropy =    37.0074

     45  H    Isotropic =    30.9903   Anisotropy =     9.6403

     46  H    Isotropic =    30.5279   Anisotropy =     7.9242

     47  H    Isotropic =    30.2047   Anisotropy =     8.4155

 The electronic state is 1-A.
 Alpha  occ. eigenvalues --  -66.30333 -19.26300 -19.25864 -19.25020 -19.23382
 Alpha  occ. eigenvalues --  -10.31282 -10.31067 -10.30424 -10.30355 -10.29612
 Alpha  occ. eigenvalues --  -10.29285 -10.25292 -10.25158 -10.24762 -10.23632
 Alpha  occ. eigenvalues --  -10.23316 -10.23236 -10.22408 -10.22289  -5.33734
 Alpha  occ. eigenvalues --   -3.67644  -3.67358  -3.67340  -1.10727  -1.08267
 Alpha  occ. eigenvalues --   -1.05263  -1.03254  -0.84694  -0.82189  -0.77526
 Alpha  occ. eigenvalues --   -0.75287  -0.72188  -0.70753  -0.70400  -0.70164
 Alpha  occ. eigenvalues --   -0.69473  -0.68473  -0.63944  -0.61552  -0.58629
 Alpha  occ. eigenvalues --   -0.56362  -0.54684  -0.52862  -0.52365  -0.50308
 Alpha  occ. eigenvalues --   -0.49362  -0.48317  -0.47665  -0.47148  -0.45414
 Alpha  occ. eigenvalues --   -0.45011  -0.44565  -0.44098  -0.43105  -0.42355
 Alpha  occ. eigenvalues --   -0.41669  -0.41118  -0.40629  -0.40399  -0.40014
 Alpha  occ. eigenvalues --   -0.39611  -0.38965  -0.38817  -0.38760  -0.38088
 Alpha  occ. eigenvalues --   -0.37192  -0.36340  -0.35431  -0.34660  -0.34019
 Alpha  occ. eigenvalues --   -0.33764  -0.32804  -0.32348  -0.31481  -0.29627
 Alpha  occ. eigenvalues --   -0.28823  -0.28240  -0.27446  -0.26800
 Alpha virt. eigenvalues --   -0.00376   0.00875   0.01083   0.01687   0.02667
 Alpha virt. eigenvalues --    0.02863   0.03305   0.03468   0.03800   0.04742
 Alpha virt. eigenvalues --    0.05077   0.05414   0.05556   0.06187   0.06296

 Mulliken atomic charges:
              1
     1  H    0.137601
     2  C    0.215346
     3  C   -0.357509
     4  C   -0.112621
     5  C    0.200135
     6  C   -0.442969
     7  C   -0.509816
     8  H    0.187151
     9  H    0.173399
    10  H    0.162789
    11  H    0.182027
    12  H    0.169984
    13  H    0.172026
    14  C   -0.026371
    15  H    0.181648
    16  H    0.166890
    17  O   -0.354062
    18  O   -0.528214
    19  H    0.389445
    20  O   -0.293042
    21  C   -0.126168
    22  H    0.159564
    23  H    0.169570
    24  H    0.153423
    25  O   -0.202621
    26  Si   0.578501
    27  C   -0.680523
    28  H    0.185506
    29  H    0.180129
    30  H    0.195381
    31  C   -0.004197
    32  C   -0.689641
    33  H    0.188660
    34  H    0.185338
    35  H    0.181440
    36  C   -0.574913
    37  H    0.163835
    38  H    0.162380
    39  H    0.176624
    40  C   -0.550564
    41  H    0.169207
    42  H    0.166691
    43  H    0.166440
    44  C   -0.571400
    45  H    0.162616
    46  H    0.165305
    47  H    0.175579
 Sum of Mulliken atomic charges =   0.00000

 Dipole moment (field-independent basis, Debye):
    X=              3.0779    Y=              0.7168    Z=              1.7881  Tot=              3.6311
 Quadrupole moment (field-independent basis, Debye-Ang):
   XX=           -140.7472   YY=           -114.1012   ZZ=           -125.6462
   XY=              2.9271   XZ=              0.7362   YZ=              2.3680

 Normal termination of Gaussian 09 at Tue Dec  6 16:10:58 2022.
