 Gaussian 09, Revision C.01,
 Gaussian 09:  EM64L-G09RevC.01 23-Sep-2011

 -----------------------------------------------------
 # mPW1PW91/6-31+g** scrf=(PCM,solvent=chloroform) nmr
 -----------------------------------------------------

 99/9=1/99;
 -------
 comment
 -------
 Charge =  0 Multiplicity = 1

                         Standard orientation:
 ---------------------------------------------------------------------
 Center     Atomic      Atomic             Coordinates (Angstroms)
 Number     Number       Type             X           Y           Z
 ---------------------------------------------------------------------
      1          1           0       -0.160975    0.967100    2.034612
      2          6           0       -0.606178    0.268548    1.315076
      3          6           0       -2.339185   -1.651611    1.320426
      4          6           0       -2.355637    0.117079   -0.522684
      5          6           0       -2.269449   -1.369470   -0.164224
      6          6           0       -1.728201    1.005280    0.574508
      7          6           0       -1.177468   -0.951478    2.071240
      8          1           0       -2.337207   -2.731011    1.501541
      9          1           0       -1.820349    0.300932   -1.464588
     10          1           0       -2.524797    1.232031    1.302757
     11          1           0       -1.523345   -0.633152    3.061582
     12          1           0       -3.304158   -1.271791    1.679551
     13          1           0       -0.345053   -1.643790    2.229247
     14          6           0       -1.678391   -2.318788   -1.111139
     15          1           0       -1.233449   -1.956692   -2.037357
     16          1           0       -1.284172   -3.268042   -0.748199
     17          8           0       -3.110325   -2.180342   -1.016034
     18          8           0       -3.728516    0.486459   -0.649190
     19          1           0       -4.132628   -0.209627   -1.197339
     20          8           0       -1.197421    2.220232    0.066474
     21          6           0       -2.173029    3.179192   -0.320701
     22          1           0       -1.624030    4.071189   -0.633431
     23          1           0       -2.829932    3.436885    0.523772
     24          1           0       -2.798725    2.821774   -1.146436
     25          8           0        0.391766   -0.187742    0.406646
     26         14           0        1.762429    0.621549   -0.156717
     27          6           0        1.457594    1.212065   -1.922936
     28          1           0        2.324166    1.749429   -2.326762
     29          1           0        0.600672    1.893084   -1.931472
     30          1           0        1.235186    0.381090   -2.602383
     31          6           0        3.163476   -0.687535   -0.107191
     32          6           0        2.161299    2.103940    0.944726
     33          1           0        3.057246    2.622462    0.582193
     34          1           0        2.344186    1.822715    1.988256
     35          1           0        1.331276    2.818237    0.927473
     36          6           0        3.437135   -1.114769    1.350390
     37          1           0        3.786303   -0.276509    1.965637
     38          1           0        4.216779   -1.890019    1.383876
     39          1           0        2.540031   -1.529185    1.825316
     40          6           0        4.458590   -0.101144   -0.710532
     41          1           0        4.804715    0.784599   -0.163045
     42          1           0        4.331429    0.183785   -1.762116
     43          1           0        5.269399   -0.843258   -0.671016
     44          6           0        2.750252   -1.934630   -0.918863
     45          1           0        3.544809   -2.694788   -0.886026
     46          1           0        2.572102   -1.697759   -1.975297
     47          1           0        1.837640   -2.390318   -0.518052
 ---------------------------------------------------------------------

 SCF Done:  E(RmPW1PW91) =  -1140.61828684     A.U. after   13 cycles

      1  H    Isotropic =    27.4357   Anisotropy =     4.7057

      2  C    Isotropic =   122.8875   Anisotropy =    43.4740

      3  C    Isotropic =   171.0856   Anisotropy =    20.0670

      4  C    Isotropic =   117.9397   Anisotropy =    22.1811

      5  C    Isotropic =   133.4701   Anisotropy =    56.1956

      6  C    Isotropic =   110.2370   Anisotropy =    36.8986

      7  C    Isotropic =   164.4736   Anisotropy =    26.3107

      8  H    Isotropic =    30.5606   Anisotropy =    10.5065

      9  H    Isotropic =    27.9514   Anisotropy =     5.0050

     10  H    Isotropic =    28.2177   Anisotropy =     2.3348

     11  H    Isotropic =    29.5450   Anisotropy =    10.2226

     12  H    Isotropic =    29.3529   Anisotropy =     8.7650

     13  H    Isotropic =    29.6976   Anisotropy =     7.7093

     14  C    Isotropic =   136.3046   Anisotropy =    32.1152

     15  H    Isotropic =    28.5710   Anisotropy =     7.6981

     16  H    Isotropic =    28.5608   Anisotropy =     8.8584

     17  O    Isotropic =   310.0169   Anisotropy =   119.8581

     18  O    Isotropic =   294.1759   Anisotropy =    72.5889

     19  H    Isotropic =    29.4489   Anisotropy =    17.7765

     20  O    Isotropic =   291.3860   Anisotropy =    66.5778

     21  C    Isotropic =   138.7537   Anisotropy =    80.7986

     22  H    Isotropic =    27.9137   Anisotropy =    10.4911

     23  H    Isotropic =    28.3315   Anisotropy =    10.2375

     24  H    Isotropic =    27.5846   Anisotropy =     8.8087

     25  O    Isotropic =   275.8245   Anisotropy =    26.2102

     26  Si   Isotropic =   377.5149   Anisotropy =    34.0778

     27  C    Isotropic =   199.3686   Anisotropy =     8.0456

     28  H    Isotropic =    31.7779   Anisotropy =    11.0836

     29  H    Isotropic =    31.1129   Anisotropy =     9.7212

     30  H    Isotropic =    31.5149   Anisotropy =     7.9404

     31  C    Isotropic =   172.6363   Anisotropy =     7.9395

     32  C    Isotropic =   201.3785   Anisotropy =     5.8614

     33  H    Isotropic =    31.7446   Anisotropy =    10.8025

     34  H    Isotropic =    31.4527   Anisotropy =     9.1235

     35  H    Isotropic =    31.0406   Anisotropy =     9.5248

     36  C    Isotropic =   170.0069   Anisotropy =    37.7270

     37  H    Isotropic =    30.6131   Anisotropy =     8.5093

     38  H    Isotropic =    31.0315   Anisotropy =     9.8789

     39  H    Isotropic =    30.4116   Anisotropy =     7.6137

     40  C    Isotropic =   170.1232   Anisotropy =    39.4470

     41  H    Isotropic =    30.7468   Anisotropy =     9.2083

     42  H    Isotropic =    30.7689   Anisotropy =     8.6514

     43  H    Isotropic =    31.0042   Anisotropy =    10.2053

     44  C    Isotropic =   170.6267   Anisotropy =    37.4225

     45  H    Isotropic =    31.0418   Anisotropy =     9.6422

     46  H    Isotropic =    30.5742   Anisotropy =     7.8846

     47  H    Isotropic =    30.3482   Anisotropy =     8.6179

 The electronic state is 1-A.
 Alpha  occ. eigenvalues --  -66.30102 -19.26981 -19.25499 -19.25327 -19.23120
 Alpha  occ. eigenvalues --  -10.31561 -10.30834 -10.30627 -10.30415 -10.30313
 Alpha  occ. eigenvalues --  -10.28497 -10.25446 -10.25243 -10.24477 -10.23477
 Alpha  occ. eigenvalues --  -10.23270 -10.23249 -10.22065 -10.21765  -5.33469
 Alpha  occ. eigenvalues --   -3.67388  -3.67098  -3.67065  -1.11480  -1.07542
 Alpha  occ. eigenvalues --   -1.05436  -1.02895  -0.84531  -0.82023  -0.77352
 Alpha  occ. eigenvalues --   -0.75109  -0.71924  -0.70276  -0.70174  -0.69909
 Alpha  occ. eigenvalues --   -0.69252  -0.69032  -0.63945  -0.63182  -0.57783
 Alpha  occ. eigenvalues --   -0.55667  -0.54737  -0.53487  -0.53210  -0.50275
 Alpha  occ. eigenvalues --   -0.48940  -0.47624  -0.47195  -0.46570  -0.44808
 Alpha  occ. eigenvalues --   -0.44451  -0.44403  -0.44273  -0.43189  -0.42692
 Alpha  occ. eigenvalues --   -0.41652  -0.41357  -0.40723  -0.40450  -0.39956
 Alpha  occ. eigenvalues --   -0.39467  -0.39100  -0.38760  -0.38589  -0.37155
 Alpha  occ. eigenvalues --   -0.37048  -0.36732  -0.36163  -0.34345  -0.33581
 Alpha  occ. eigenvalues --   -0.33512  -0.32216  -0.31691  -0.31185  -0.30756
 Alpha  occ. eigenvalues --   -0.29247  -0.28255  -0.27416  -0.26198
 Alpha virt. eigenvalues --   -0.00113   0.00858   0.01261   0.01486   0.02465
 Alpha virt. eigenvalues --    0.03129   0.03288   0.03472   0.03665   0.04987
 Alpha virt. eigenvalues --    0.05262   0.05414   0.05687   0.05928   0.06291

 Mulliken atomic charges:
              1
     1  H    0.151863
     2  C    0.303212
     3  C   -0.189580
     4  C    0.125111
     5  C   -0.299253
     6  C   -0.366882
     7  C   -0.538384
     8  H    0.176647
     9  H    0.161506
    10  H    0.161830
    11  H    0.175255
    12  H    0.190945
    13  H    0.179689
    14  C    0.044895
    15  H    0.166526
    16  H    0.169021
    17  O   -0.376244
    18  O   -0.517192
    19  H    0.383477
    20  O   -0.274378
    21  C   -0.211759
    22  H    0.161932
    23  H    0.147759
    24  H    0.170847
    25  O   -0.259066
    26  Si   0.620129
    27  C   -0.698170
    28  H    0.181700
    29  H    0.201212
    30  H    0.178780
    31  C    0.017829
    32  C   -0.733997
    33  H    0.186474
    34  H    0.184020
    35  H    0.208121
    36  C   -0.585454
    37  H    0.164712
    38  H    0.161792
    39  H    0.171654
    40  C   -0.533457
    41  H    0.166162
    42  H    0.168467
    43  H    0.164091
    44  C   -0.561948
    45  H    0.161115
    46  H    0.163530
    47  H    0.175461
 Sum of Mulliken atomic charges =   0.00000

 Dipole moment (field-independent basis, Debye):
    X=              1.4967    Y=              0.3152    Z=              0.9940  Tot=              1.8241
 Quadrupole moment (field-independent basis, Debye-Ang):
   XX=           -136.1770   YY=           -124.4030   ZZ=           -121.1747
   XY=             -3.1503   XZ=             -3.4957   YZ=             -1.2992

 Normal termination of Gaussian 09 at Tue Dec  6 14:11:53 2022.
