 Gaussian 09, Revision C.01,
 Gaussian 09:  EM64L-G09RevC.01 23-Sep-2011

 -----------------------------------------------------
 # mPW1PW91/6-31+g** scrf=(PCM,solvent=chloroform) nmr
 -----------------------------------------------------

 99/9=1/99;
 -------
 comment
 -------
 Charge =  0 Multiplicity = 1

                         Standard orientation:
 ---------------------------------------------------------------------
 Center     Atomic      Atomic             Coordinates (Angstroms)
 Number     Number       Type             X           Y           Z
 ---------------------------------------------------------------------
      1          1           0       -0.240239   -1.041516    0.372681
      2          6           0       -0.466307   -0.208522   -0.306560
      3          6           0       -2.605309   -1.398290   -0.938001
      4          6           0       -2.530762    0.164645    1.091782
      5          6           0       -3.366994   -0.464783   -0.014777
      6          6           0       -1.264604    0.820779    0.518267
      7          6           0       -1.319678   -0.735253   -1.466485
      8          1           0       -3.252355   -1.718186   -1.761912
      9          1           0       -3.123164    0.939503    1.598355
     10          1           0       -0.641138    1.179745    1.350969
     11          1           0       -0.737683   -1.456434   -2.050585
     12          1           0       -2.345031   -2.299114   -0.366943
     13          1           0       -1.562069    0.105506   -2.125923
     14          6           0       -4.619029    0.179884   -0.425076
     15          1           0       -4.913597    1.129828    0.019899
     16          1           0       -5.013231   -0.007074   -1.424079
     17          8           0       -4.642414   -0.954051    0.460724
     18          8           0       -2.113509   -0.834228    2.020998
     19          1           0       -2.921628   -1.291828    2.307249
     20          8           0       -1.732901    1.917524   -0.255107
     21          6           0       -0.827884    3.000403   -0.411046
     22          1           0        0.014768    2.742693   -1.059572
     23          1           0       -0.437278    3.333755    0.563044
     24          1           0       -1.400728    3.818370   -0.858118
     25          8           0        0.737859    0.384783   -0.789017
     26         14           0        2.282194   -0.286274   -0.767132
     27          6           0        2.202120   -2.120651   -1.230898
     28          1           0        3.199770   -2.575474   -1.213279
     29          1           0        1.803672   -2.244220   -2.244859
     30          1           0        1.567287   -2.701348   -0.551633
     31          6           0        3.103879   -0.060208    0.956575
     32          6           0        3.216678    0.671442   -2.094832
     33          1           0        4.252423    0.327069   -2.196416
     34          1           0        3.240017    1.745114   -1.877223
     35          1           0        2.725408    0.542861   -3.066172
     36          6           0        3.109178    1.434767    1.340274
     37          1           0        3.685304    2.038128    0.628094
     38          1           0        3.564704    1.576128    2.331329
     39          1           0        2.094292    1.846808    1.380799
     40          6           0        4.561800   -0.568497    0.903346
     41          1           0        5.163440   -0.021750    0.166965
     42          1           0        4.618728   -1.635915    0.656727
     43          1           0        5.047778   -0.436646    1.881136
     44          6           0        2.342063   -0.853557    2.040875
     45          1           0        2.829245   -0.726525    3.018876
     46          1           0        2.323065   -1.929310    1.826984
     47          1           0        1.304347   -0.517498    2.152021
 ---------------------------------------------------------------------

 SCF Done:  E(RmPW1PW91) =  -1140.62360649     A.U. after   13 cycles

      1  H    Isotropic =    27.1064   Anisotropy =     8.9432

      2  C    Isotropic =   121.7347   Anisotropy =    54.4619

      3  C    Isotropic =   167.2444   Anisotropy =    25.7154

      4  C    Isotropic =   117.5777   Anisotropy =    26.3182

      5  C    Isotropic =   136.0229   Anisotropy =    55.1769

      6  C    Isotropic =   112.9780   Anisotropy =    44.8615

      7  C    Isotropic =   166.7500   Anisotropy =    31.5021

      8  H    Isotropic =    30.5556   Anisotropy =    10.4319

      9  H    Isotropic =    28.1864   Anisotropy =     5.2141

     10  H    Isotropic =    27.8036   Anisotropy =     2.8585

     11  H    Isotropic =    29.9872   Anisotropy =     8.5413

     12  H    Isotropic =    29.2874   Anisotropy =     6.2572

     13  H    Isotropic =    29.3370   Anisotropy =     4.2948

     14  C    Isotropic =   139.5354   Anisotropy =    33.2857

     15  H    Isotropic =    28.8002   Anisotropy =     9.1066

     16  H    Isotropic =    28.8073   Anisotropy =     9.8820

     17  O    Isotropic =   315.3856   Anisotropy =   135.2136

     18  O    Isotropic =   295.4477   Anisotropy =    54.1851

     19  H    Isotropic =    29.9563   Anisotropy =    18.4608

     20  O    Isotropic =   313.4617   Anisotropy =    46.2570

     21  C    Isotropic =   135.7376   Anisotropy =    85.4996

     22  H    Isotropic =    27.2329   Anisotropy =     7.0006

     23  H    Isotropic =    28.2268   Anisotropy =     8.5227

     24  H    Isotropic =    27.9151   Anisotropy =    10.8977

     25  O    Isotropic =   280.7369   Anisotropy =    27.0285

     26  Si   Isotropic =   380.3885   Anisotropy =    34.8507

     27  C    Isotropic =   201.3081   Anisotropy =     6.5098

     28  H    Isotropic =    31.5591   Anisotropy =    10.7758

     29  H    Isotropic =    31.5911   Anisotropy =     9.8660

     30  H    Isotropic =    31.1047   Anisotropy =     7.6098

     31  C    Isotropic =   171.4755   Anisotropy =     7.3196

     32  C    Isotropic =   198.7486   Anisotropy =     8.0811

     33  H    Isotropic =    31.6115   Anisotropy =    10.7745

     34  H    Isotropic =    31.3170   Anisotropy =     8.6102

     35  H    Isotropic =    31.5511   Anisotropy =     9.9138

     36  C    Isotropic =   170.1211   Anisotropy =    36.5770

     37  H    Isotropic =    30.5530   Anisotropy =     8.5200

     38  H    Isotropic =    30.9605   Anisotropy =     9.3577

     39  H    Isotropic =    30.1491   Anisotropy =     8.6008

     40  C    Isotropic =   169.6130   Anisotropy =    40.0689

     41  H    Isotropic =    30.7256   Anisotropy =     9.2502

     42  H    Isotropic =    30.6681   Anisotropy =     8.9441

     43  H    Isotropic =    30.9725   Anisotropy =    10.0376

     44  C    Isotropic =   170.0350   Anisotropy =    37.8958

     45  H    Isotropic =    30.8834   Anisotropy =     9.2553

     46  H    Isotropic =    30.4416   Anisotropy =     7.5302

     47  H    Isotropic =    30.2534   Anisotropy =     9.9807

 The electronic state is 1-A.
 Alpha  occ. eigenvalues --  -66.30426 -19.26782 -19.25948 -19.25439 -19.23432
 Alpha  occ. eigenvalues --  -10.31466 -10.30933 -10.30458 -10.30369 -10.30290
 Alpha  occ. eigenvalues --  -10.28331 -10.25407 -10.24807 -10.24666 -10.23656
 Alpha  occ. eigenvalues --  -10.23514 -10.23416 -10.22529 -10.22323  -5.33825
 Alpha  occ. eigenvalues --   -3.67734  -3.67467  -3.67413  -1.11298  -1.07463
 Alpha  occ. eigenvalues --   -1.06128  -1.02997  -0.84545  -0.82274  -0.77947
 Alpha  occ. eigenvalues --   -0.74738  -0.72194  -0.70589  -0.70238  -0.69716
 Alpha  occ. eigenvalues --   -0.69576  -0.68794  -0.64854  -0.62410  -0.57406
 Alpha  occ. eigenvalues --   -0.57221  -0.54031  -0.53745  -0.52800  -0.50252
 Alpha  occ. eigenvalues --   -0.48417  -0.48333  -0.48000  -0.46359  -0.44766
 Alpha  occ. eigenvalues --   -0.44723  -0.44371  -0.43898  -0.43556  -0.42721
 Alpha  occ. eigenvalues --   -0.42582  -0.41460  -0.40926  -0.40251  -0.40173
 Alpha  occ. eigenvalues --   -0.39750  -0.39151  -0.38912  -0.38444  -0.37424
 Alpha  occ. eigenvalues --   -0.37249  -0.36240  -0.35761  -0.35117  -0.33911
 Alpha  occ. eigenvalues --   -0.33479  -0.33191  -0.31602  -0.31091  -0.31015
 Alpha  occ. eigenvalues --   -0.30154  -0.28519  -0.26935  -0.26013
 Alpha virt. eigenvalues --   -0.00215   0.00939   0.01248   0.01465   0.02130
 Alpha virt. eigenvalues --    0.03014   0.03127   0.03744   0.03945   0.04574
 Alpha virt. eigenvalues --    0.04807   0.05410   0.05701   0.06038   0.06418

 Mulliken atomic charges:
              1
     1  H    0.162069
     2  C   -0.338109
     3  C   -0.345604
     4  C   -0.037441
     5  C   -0.276047
     6  C   -0.070026
     7  C   -0.082596
     8  H    0.171355
     9  H    0.161627
    10  H    0.143541
    11  H    0.166681
    12  H    0.188587
    13  H    0.186630
    14  C   -0.039618
    15  H    0.172688
    16  H    0.172077
    17  O   -0.359037
    18  O   -0.502605
    19  H    0.386154
    20  O   -0.215598
    21  C   -0.116103
    22  H    0.174024
    23  H    0.140965
    24  H    0.160845
    25  O   -0.258367
    26  Si   0.723767
    27  C   -0.702510
    28  H    0.189166
    29  H    0.187289
    30  H    0.187519
    31  C   -0.035975
    32  C   -0.685874
    33  H    0.186477
    34  H    0.186980
    35  H    0.187853
    36  C   -0.559618
    37  H    0.165173
    38  H    0.163514
    39  H    0.171483
    40  C   -0.522527
    41  H    0.168133
    42  H    0.166590
    43  H    0.166667
    44  C   -0.591910
    45  H    0.165079
    46  H    0.166555
    47  H    0.170077
 Sum of Mulliken atomic charges =   0.00000

 Dipole moment (field-independent basis, Debye):
    X=              1.3347    Y=              0.5527    Z=             -1.1702  Tot=              1.8591
 Quadrupole moment (field-independent basis, Debye-Ang):
   XX=           -127.6603   YY=           -123.0373   ZZ=           -126.0189
   XY=             -5.4131   XZ=              3.1256   YZ=              2.6968

 Normal termination of Gaussian 09 at Tue Dec  6 21:31:15 2022.
