 Gaussian 09, Revision C.01,
 Gaussian 09:  EM64L-G09RevC.01 23-Sep-2011

 -----------------------------------------------------
 # mPW1PW91/6-31+g** scrf=(PCM,solvent=chloroform) nmr
 -----------------------------------------------------

 99/9=1/99;
 -------
 comment
 -------
 Charge =  0 Multiplicity = 1

                         Standard orientation:
 ---------------------------------------------------------------------
 Center     Atomic      Atomic             Coordinates (Angstroms)
 Number     Number       Type             X           Y           Z
 ---------------------------------------------------------------------
      1          1           0       -0.586550   -1.246432    0.612155
      2          6           0       -0.582275   -0.335077   -0.003678
      3          6           0       -2.635103   -1.208011   -1.194691
      4          6           0       -2.859564    0.147543    0.968240
      5          6           0       -3.487238   -0.275161   -0.353705
      6          6           0       -1.440139    0.698615    0.752484
      7          6           0       -1.208105   -0.655940   -1.366246
      8          1           0       -3.113132   -1.376306   -2.165676
      9          1           0       -3.471525    0.938727    1.423710
     10          1           0       -0.982273    0.901212    1.732224
     11          1           0       -0.581783   -1.384054   -1.893114
     12          1           0       -2.594262   -2.179611   -0.685081
     13          1           0       -1.220969    0.262447   -1.963626
     14          6           0       -4.548907    0.548027   -0.942363
     15          1           0       -4.841518    1.482804   -0.465051
     16          1           0       -4.729062    0.499150   -2.016396
     17          8           0       -4.877677   -0.649255   -0.214765
     18          8           0       -2.760335   -0.974814    1.843049
     19          1           0       -3.652828   -1.356070    1.893528
     20          8           0       -1.621158    1.910212    0.030801
     21          6           0       -0.610429    2.891911    0.199011
     22          1           0       -0.408839    3.076097    1.265587
     23          1           0       -0.995628    3.812234   -0.250224
     24          1           0        0.324801    2.606470   -0.292300
     25          8           0        0.750260    0.153576   -0.162912
     26         14           0        2.134857   -0.717139    0.242761
     27          6           0        2.160562   -1.048930    2.105141
     28          1           0        3.043499   -1.631904    2.394559
     29          1           0        1.278419   -1.623069    2.414009
     30          1           0        2.167077   -0.120152    2.686562
     31          6           0        3.595211    0.389911   -0.305754
     32          6           0        2.141968   -2.381473   -0.660119
     33          1           0        3.019914   -2.978743   -0.385574
     34          1           0        2.147456   -2.259410   -1.749178
     35          1           0        1.256222   -2.973686   -0.398895
     36          6           0        3.478053    0.705775   -1.812420
     37          1           0        3.523160   -0.203268   -2.424601
     38          1           0        4.305918    1.355246   -2.132559
     39          1           0        2.539149    1.219517   -2.045817
     40          6           0        4.930096   -0.342585   -0.045838
     41          1           0        5.001188   -1.280254   -0.610411
     42          1           0        5.072583   -0.578268    1.016274
     43          1           0        5.776524    0.287846   -0.354352
     44          6           0        3.586948    1.714156    0.487084
     45          1           0        4.418981    2.357465    0.165252
     46          1           0        3.702710    1.547815    1.564969
     47          1           0        2.657570    2.273832    0.333120
 ---------------------------------------------------------------------

 SCF Done:  E(RmPW1PW91) =  -1140.62466430     A.U. after   13 cycles

      1  H    Isotropic =    27.2476   Anisotropy =     9.0600

      2  C    Isotropic =   123.2338   Anisotropy =    52.9695

      3  C    Isotropic =   167.1533   Anisotropy =    25.2247

      4  C    Isotropic =   117.2079   Anisotropy =    26.1252

      5  C    Isotropic =   135.5974   Anisotropy =    55.2947

      6  C    Isotropic =   112.5914   Anisotropy =    45.2727

      7  C    Isotropic =   166.9943   Anisotropy =    30.7526

      8  H    Isotropic =    30.5364   Anisotropy =    10.3115

      9  H    Isotropic =    28.2519   Anisotropy =     5.1976

     10  H    Isotropic =    28.0360   Anisotropy =     2.1560

     11  H    Isotropic =    30.0473   Anisotropy =     8.5993

     12  H    Isotropic =    29.2545   Anisotropy =     6.6076

     13  H    Isotropic =    29.3350   Anisotropy =     3.9848

     14  C    Isotropic =   139.1939   Anisotropy =    32.7947

     15  H    Isotropic =    28.8143   Anisotropy =     9.0758

     16  H    Isotropic =    28.8013   Anisotropy =     9.7410

     17  O    Isotropic =   315.6805   Anisotropy =   136.6070

     18  O    Isotropic =   295.1312   Anisotropy =    55.7641

     19  H    Isotropic =    29.8578   Anisotropy =    18.5226

     20  O    Isotropic =   313.5507   Anisotropy =    47.0022

     21  C    Isotropic =   135.1883   Anisotropy =    85.0564

     22  H    Isotropic =    28.2892   Anisotropy =     8.5662

     23  H    Isotropic =    27.8848   Anisotropy =    10.5170

     24  H    Isotropic =    27.1834   Anisotropy =     7.9801

     25  O    Isotropic =   281.0975   Anisotropy =    32.7646

     26  Si   Isotropic =   379.3247   Anisotropy =    43.1289

     27  C    Isotropic =   200.7457   Anisotropy =    10.0353

     28  H    Isotropic =    31.6664   Anisotropy =    10.9054

     29  H    Isotropic =    31.1474   Anisotropy =     8.8960

     30  H    Isotropic =    31.4921   Anisotropy =     8.9149

     31  C    Isotropic =   174.1270   Anisotropy =     8.0184

     32  C    Isotropic =   200.1388   Anisotropy =     8.5608

     33  H    Isotropic =    31.6591   Anisotropy =    10.8671

     34  H    Isotropic =    31.4872   Anisotropy =     8.6772

     35  H    Isotropic =    31.2853   Anisotropy =     8.4633

     36  C    Isotropic =   170.5490   Anisotropy =    37.9078

     37  H    Isotropic =    30.5693   Anisotropy =     8.4240

     38  H    Isotropic =    31.0012   Anisotropy =     9.7554

     39  H    Isotropic =    30.2586   Anisotropy =     7.9680

     40  C    Isotropic =   170.3647   Anisotropy =    39.3926

     41  H    Isotropic =    30.7138   Anisotropy =     8.9780

     42  H    Isotropic =    30.6722   Anisotropy =     9.2237

     43  H    Isotropic =    30.9163   Anisotropy =    10.1083

     44  C    Isotropic =   170.2300   Anisotropy =    37.8490

     45  H    Isotropic =    31.0018   Anisotropy =     9.6429

     46  H    Isotropic =    30.5241   Anisotropy =     8.4065

     47  H    Isotropic =    30.3544   Anisotropy =     8.7185

 The electronic state is 1-A.
 Alpha  occ. eigenvalues --  -66.30350 -19.26788 -19.25969 -19.25451 -19.23414
 Alpha  occ. eigenvalues --  -10.31473 -10.30942 -10.30458 -10.30381 -10.30301
 Alpha  occ. eigenvalues --  -10.28364 -10.25402 -10.24874 -10.24662 -10.23683
 Alpha  occ. eigenvalues --  -10.23433 -10.23343 -10.22433 -10.22351  -5.33766
 Alpha  occ. eigenvalues --   -3.67671  -3.67390  -3.67374  -1.11309  -1.07472
 Alpha  occ. eigenvalues --   -1.06150  -1.02990  -0.84548  -0.82293  -0.77948
 Alpha  occ. eigenvalues --   -0.74616  -0.72206  -0.70503  -0.70244  -0.69715
 Alpha  occ. eigenvalues --   -0.69546  -0.68812  -0.64842  -0.62431  -0.57524
 Alpha  occ. eigenvalues --   -0.57217  -0.54008  -0.53508  -0.52752  -0.50261
 Alpha  occ. eigenvalues --   -0.48444  -0.48248  -0.47989  -0.46233  -0.44978
 Alpha  occ. eigenvalues --   -0.44658  -0.44387  -0.44135  -0.42925  -0.42754
 Alpha  occ. eigenvalues --   -0.42642  -0.41446  -0.41039  -0.40263  -0.40238
 Alpha  occ. eigenvalues --   -0.39916  -0.39090  -0.38976  -0.38764  -0.37416
 Alpha  occ. eigenvalues --   -0.37115  -0.36247  -0.35859  -0.34377  -0.34167
 Alpha  occ. eigenvalues --   -0.33528  -0.33198  -0.32105  -0.31416  -0.30656
 Alpha  occ. eigenvalues --   -0.28719  -0.28523  -0.27568  -0.26355
 Alpha virt. eigenvalues --   -0.00250   0.01027   0.01211   0.01393   0.02123
 Alpha virt. eigenvalues --    0.02930   0.03151   0.03765   0.04056   0.04453
 Alpha virt. eigenvalues --    0.04587   0.05400   0.05557   0.06261   0.06348

 Mulliken atomic charges:
              1
     1  H    0.159881
     2  C   -0.490923
     3  C   -0.338793
     4  C   -0.064787
     5  C   -0.287539
     6  C    0.042379
     7  C   -0.033611
     8  H    0.171679
     9  H    0.161742
    10  H    0.148400
    11  H    0.169920
    12  H    0.188518
    13  H    0.186540
    14  C   -0.032323
    15  H    0.172806
    16  H    0.172215
    17  O   -0.357187
    18  O   -0.498505
    19  H    0.380366
    20  O   -0.234942
    21  C   -0.162737
    22  H    0.141340
    23  H    0.161088
    24  H    0.166872
    25  O   -0.288113
    26  Si   0.807928
    27  C   -0.678066
    28  H    0.187861
    29  H    0.186592
    30  H    0.185248
    31  C    0.003384
    32  C   -0.688083
    33  H    0.188710
    34  H    0.187221
    35  H    0.185964
    36  C   -0.586386
    37  H    0.164643
    38  H    0.162586
    39  H    0.178358
    40  C   -0.553225
    41  H    0.169685
    42  H    0.168401
    43  H    0.166562
    44  C   -0.570829
    45  H    0.163635
    46  H    0.165485
    47  H    0.170038
 Sum of Mulliken atomic charges =   0.00000

 Dipole moment (field-independent basis, Debye):
    X=              1.5392    Y=              0.5036    Z=             -0.5660  Tot=              1.7156
 Quadrupole moment (field-independent basis, Debye-Ang):
   XX=           -130.8378   YY=           -122.4486   ZZ=           -125.3194
   XY=             -5.9277   XZ=              3.3985   YZ=              1.7691

 Normal termination of Gaussian 09 at Tue Dec  6 21:41:32 2022.
