 Gaussian 09, Revision C.01,
 Gaussian 09:  EM64L-G09RevC.01 23-Sep-2011

 -----------------------------------------------------
 # mPW1PW91/6-31+g** scrf=(PCM,solvent=chloroform) nmr
 -----------------------------------------------------

 99/9=1/99;
 -------
 comment
 -------
 Charge =  0 Multiplicity = 1

                         Standard orientation:
 ---------------------------------------------------------------------
 Center     Atomic      Atomic             Coordinates (Angstroms)
 Number     Number       Type             X           Y           Z
 ---------------------------------------------------------------------
      1          1           0       -0.586451   -1.252481    0.655100
      2          6           0       -0.592019   -0.352543    0.021986
      3          6           0       -2.631643   -1.284700   -1.137027
      4          6           0       -2.874343    0.138241    0.987276
      5          6           0       -3.505402   -0.355186   -0.313038
      6          6           0       -1.454712    0.692261    0.758254
      7          6           0       -1.220592   -0.701843   -1.331214
      8          1           0       -3.114496   -1.466113   -2.103178
      9          1           0       -3.494053    0.948801    1.394863
     10          1           0       -1.002867    0.904744    1.739241
     11          1           0       -0.582523   -1.420322   -1.857412
     12          1           0       -2.561762   -2.249537   -0.616424
     13          1           0       -1.269340    0.208879   -1.937368
     14          8           0       -4.239242    0.638089   -1.048016
     15          6           0       -4.975387   -0.412726   -0.414718
     16          8           0       -2.740277   -0.939012    1.919694
     17          1           0       -3.624013   -1.313151    2.061239
     18          8           0       -1.626021    1.890139    0.020879
     19          6           0       -0.624474    2.878845    0.192278
     20          1           0       -0.431580    3.069988    1.259659
     21          1           0       -1.013972    3.793493   -0.264310
     22          1           0        0.317163    2.599436   -0.290877
     23          8           0        0.736732    0.142946   -0.147928
     24         14           0        2.130385   -0.717193    0.244385
     25          6           0        2.176445   -1.050032    2.106677
     26          1           0        3.068036   -1.623886    2.387753
     27          1           0        1.303004   -1.633219    2.423304
     28          1           0        2.178482   -0.121311    2.688180
     29          6           0        3.578774    0.399197   -0.316492
     30          6           0        2.144141   -2.382612   -0.657325
     31          1           0        3.029214   -2.972161   -0.388976
     32          1           0        2.140187   -2.261345   -1.746475
     33          1           0        1.265255   -2.981821   -0.388926
     34          6           0        3.441556    0.720413   -1.820401
     35          1           0        3.482075   -0.186058   -2.436782
     36          1           0        4.263120    1.374031   -2.148277
     37          1           0        2.498031    1.231631   -2.039919
     38          6           0        4.920597   -0.327039   -0.075574
     39          1           0        4.990489   -1.261632   -0.645420
     40          1           0        5.076970   -0.566940    0.983722
     41          1           0        5.759784    0.309704   -0.390919
     42          6           0        3.572853    1.720242    0.481685
     43          1           0        4.396339    2.370088    0.151059
     44          1           0        3.704526    1.550217    1.557196
     45          1           0        2.637918    2.274419    0.342609
     46          1           0       -5.439574   -1.135522   -1.087237
     47          1           0       -5.599653   -0.101647    0.425952
 ---------------------------------------------------------------------

 SCF Done:  E(RmPW1PW91) =  -1140.62083467     A.U. after   13 cycles

      1  H    Isotropic =    27.3050   Anisotropy =     8.9774

      2  C    Isotropic =   122.9548   Anisotropy =    52.8691

      3  C    Isotropic =   165.7985   Anisotropy =    22.8309

      4  C    Isotropic =   116.5209   Anisotropy =    30.5125

      5  C    Isotropic =   137.5081   Anisotropy =    59.5826

      6  C    Isotropic =   112.9056   Anisotropy =    47.7767

      7  C    Isotropic =   166.9751   Anisotropy =    30.1675

      8  H    Isotropic =    30.5301   Anisotropy =    10.3791

      9  H    Isotropic =    28.3030   Anisotropy =     5.0445

     10  H    Isotropic =    28.0519   Anisotropy =     2.1271

     11  H    Isotropic =    30.1287   Anisotropy =     8.6825

     12  H    Isotropic =    29.2419   Anisotropy =     7.2558

     13  H    Isotropic =    29.1532   Anisotropy =     3.8742

     14  O    Isotropic =   294.6276   Anisotropy =   132.1421

     15  C    Isotropic =   147.5851   Anisotropy =    43.9375

     16  O    Isotropic =   288.8479   Anisotropy =    71.2613

     17  H    Isotropic =    30.5751   Anisotropy =    18.7970

     18  O    Isotropic =   314.5261   Anisotropy =    46.5352

     19  C    Isotropic =   135.0779   Anisotropy =    85.1494

     20  H    Isotropic =    28.2913   Anisotropy =     8.5725

     21  H    Isotropic =    27.8197   Anisotropy =    10.5676

     22  H    Isotropic =    27.1682   Anisotropy =     8.0881

     23  O    Isotropic =   278.2698   Anisotropy =    35.7092

     24  Si   Isotropic =   380.5778   Anisotropy =    42.5293

     25  C    Isotropic =   200.7510   Anisotropy =    10.2245

     26  H    Isotropic =    31.6705   Anisotropy =    10.8725

     27  H    Isotropic =    31.1570   Anisotropy =     8.8802

     28  H    Isotropic =    31.4893   Anisotropy =     8.9314

     29  C    Isotropic =   174.0723   Anisotropy =     7.8975

     30  C    Isotropic =   199.8460   Anisotropy =     8.5203

     31  H    Isotropic =    31.6744   Anisotropy =    10.8187

     32  H    Isotropic =    31.4530   Anisotropy =     8.6161

     33  H    Isotropic =    31.3199   Anisotropy =     8.4334

     34  C    Isotropic =   170.5415   Anisotropy =    37.8979

     35  H    Isotropic =    30.5527   Anisotropy =     8.4221

     36  H    Isotropic =    30.9929   Anisotropy =     9.7620

     37  H    Isotropic =    30.2059   Anisotropy =     7.9569

     38  C    Isotropic =   170.2923   Anisotropy =    39.4187

     39  H    Isotropic =    30.7110   Anisotropy =     8.9605

     40  H    Isotropic =    30.6715   Anisotropy =     9.2029

     41  H    Isotropic =    30.9114   Anisotropy =    10.1109

     42  C    Isotropic =   170.1718   Anisotropy =    37.8511

     43  H    Isotropic =    30.9927   Anisotropy =     9.6477

     44  H    Isotropic =    30.5200   Anisotropy =     8.4030

     45  H    Isotropic =    30.3199   Anisotropy =     8.7276

     46  H    Isotropic =    29.1912   Anisotropy =    11.2112

     47  H    Isotropic =    29.1540   Anisotropy =    10.9242

 The electronic state is 1-A.
 Alpha  occ. eigenvalues --  -66.30275 -19.26525 -19.26358 -19.25002 -19.23277
 Alpha  occ. eigenvalues --  -10.31599 -10.31059 -10.30321 -10.30210 -10.30186
 Alpha  occ. eigenvalues --  -10.28070 -10.25366 -10.24798 -10.24323 -10.23633
 Alpha  occ. eigenvalues --  -10.23355 -10.23248 -10.22392 -10.22314  -5.33689
 Alpha  occ. eigenvalues --   -3.67593  -3.67315  -3.67298  -1.11388  -1.07405
 Alpha  occ. eigenvalues --   -1.06266  -1.02838  -0.84277  -0.82215  -0.77818
 Alpha  occ. eigenvalues --   -0.74637  -0.72179  -0.70436  -0.70187  -0.69573
 Alpha  occ. eigenvalues --   -0.69475  -0.68686  -0.64685  -0.62240  -0.57516
 Alpha  occ. eigenvalues --   -0.57131  -0.53979  -0.53391  -0.52672  -0.50297
 Alpha  occ. eigenvalues --   -0.48430  -0.48054  -0.47573  -0.46111  -0.45400
 Alpha  occ. eigenvalues --   -0.44592  -0.44311  -0.43626  -0.43321  -0.42703
 Alpha  occ. eigenvalues --   -0.41860  -0.41086  -0.40922  -0.40297  -0.40166
 Alpha  occ. eigenvalues --   -0.39896  -0.39227  -0.38977  -0.38782  -0.37893
 Alpha  occ. eigenvalues --   -0.37193  -0.35938  -0.35661  -0.34364  -0.34039
 Alpha  occ. eigenvalues --   -0.33352  -0.32796  -0.31791  -0.31410  -0.30568
 Alpha  occ. eigenvalues --   -0.28701  -0.28122  -0.27486  -0.26063
 Alpha virt. eigenvalues --   -0.00312   0.00625   0.01192   0.01531   0.02223
 Alpha virt. eigenvalues --    0.02952   0.03192   0.03934   0.04165   0.04559
 Alpha virt. eigenvalues --    0.04661   0.05184   0.05315   0.06416   0.06588

 Mulliken atomic charges:
              1
     1  H    0.155866
     2  C   -0.498028
     3  C   -0.476511
     4  C   -0.037743
     5  C   -0.051731
     6  C   -0.031214
     7  C   -0.156696
     8  H    0.173921
     9  H    0.161312
    10  H    0.144144
    11  H    0.168039
    12  H    0.184036
    13  H    0.192530
    14  O   -0.314317
    15  C   -0.002585
    16  O   -0.508918
    17  H    0.383102
    18  O   -0.233802
    19  C   -0.159538
    20  H    0.138276
    21  H    0.160726
    22  H    0.164235
    23  O   -0.280581
    24  Si   0.848568
    25  C   -0.684736
    26  H    0.187315
    27  H    0.185646
    28  H    0.185408
    29  C   -0.001919
    30  C   -0.693509
    31  H    0.188128
    32  H    0.187587
    33  H    0.185049
    34  C   -0.585918
    35  H    0.164300
    36  H    0.162290
    37  H    0.179630
    38  C   -0.554384
    39  H    0.169520
    40  H    0.167936
    41  H    0.166394
    42  C   -0.572634
    43  H    0.163475
    44  H    0.165061
    45  H    0.170522
    46  H    0.172458
    47  H    0.169291
 Sum of Mulliken atomic charges =   0.00000

 Dipole moment (field-independent basis, Debye):
    X=             -0.3061    Y=             -2.9032    Z=              1.6336  Tot=              3.3453
 Quadrupole moment (field-independent basis, Debye-Ang):
   XX=           -113.8937   YY=           -123.4365   ZZ=           -128.3885
   XY=             11.3595   XZ=             -6.9008   YZ=              4.4781

 Normal termination of Gaussian 09 at Wed Dec  7 00:47:46 2022.
