 Gaussian 09, Revision C.01,
 Gaussian 09:  EM64L-G09RevC.01 23-Sep-2011

 -----------------------------------------------------
 # mPW1PW91/6-31+g** scrf=(PCM,solvent=chloroform) nmr
 -----------------------------------------------------

 99/9=1/99;
 -------
 comment
 -------
 Charge =  0 Multiplicity = 1

                         Standard orientation:
 ---------------------------------------------------------------------
 Center     Atomic      Atomic             Coordinates (Angstroms)
 Number     Number       Type             X           Y           Z
 ---------------------------------------------------------------------
      1          1           0        0.103638   -0.112974    1.916844
      2          6           0       -0.468054   -0.382431    1.018652
      3          6           0       -2.222466   -1.950592    0.092169
      4          6           0       -2.217781    0.545263   -0.595167
      5          6           0       -3.011271   -0.753369   -0.396723
      6          6           0       -1.334285    0.832747    0.640614
      7          6           0       -1.368290   -1.590997    1.316246
      8          1           0       -1.565965   -2.289111   -0.718185
      9          1           0       -1.560534    0.448737   -1.464700
     10          1           0       -2.001411    1.039828    1.495742
     11          1           0       -2.019539   -1.355660    2.168336
     12          1           0       -2.913940   -2.767444    0.325159
     13          1           0       -0.745171   -2.443169    1.609388
     14          6           0       -4.286111   -0.928837   -1.100630
     15          1           0       -4.620964   -0.170835   -1.805387
     16          1           0       -4.668027   -1.935593   -1.268447
     17          8           0       -4.275543   -0.511905    0.283165
     18          8           0       -3.104995    1.621691   -0.867139
     19          1           0       -3.849663    1.492537   -0.249134
     20          8           0       -0.469592    1.937831    0.436722
     21          6           0       -1.025945    3.221437    0.689181
     22          1           0       -1.467583    3.269902    1.697360
     23          1           0       -1.790216    3.486144   -0.047017
     24          1           0       -0.195846    3.931151    0.635244
     25          8           0        0.408032   -0.698935   -0.057056
     26         14           0        2.072451   -0.962478   -0.041728
     27          6           0        2.576819   -1.765740    1.598343
     28          1           0        3.658683   -1.944214    1.626707
     29          1           0        2.082180   -2.735932    1.727313
     30          1           0        2.328665   -1.145979    2.467577
     31          6           0        3.047903    0.662893   -0.333065
     32          6           0        2.351192   -2.179813   -1.456269
     33          1           0        3.404097   -2.472500   -1.541428
     34          1           0        2.043230   -1.757175   -2.419320
     35          1           0        1.764123   -3.091240   -1.293218
     36          6           0        2.453883    1.413380   -1.544332
     37          1           0        2.492472    0.809702   -2.460200
     38          1           0        3.024534    2.333836   -1.739134
     39          1           0        1.412051    1.694278   -1.362644
     40          6           0        4.529038    0.327833   -0.616906
     41          1           0        4.649661   -0.276279   -1.524177
     42          1           0        4.999735   -0.214967    0.213253
     43          1           0        5.105050    1.253048   -0.764191
     44          6           0        2.971234    1.577424    0.909219
     45          1           0        3.526542    2.509712    0.727567
     46          1           0        3.415157    1.105326    1.794918
     47          1           0        1.936330    1.848919    1.142427
 ---------------------------------------------------------------------

 SCF Done:  E(RmPW1PW91) =  -1140.62425951     A.U. after   13 cycles

      1  H    Isotropic =    27.2925   Anisotropy =     3.3050

      2  C    Isotropic =   121.2773   Anisotropy =    35.8082

      3  C    Isotropic =   167.7628   Anisotropy =    30.1113

      4  C    Isotropic =   123.6146   Anisotropy =    39.1170

      5  C    Isotropic =   133.8320   Anisotropy =    60.0218

      6  C    Isotropic =   109.8716   Anisotropy =    36.9212

      7  C    Isotropic =   163.7118   Anisotropy =    19.8685

      8  H    Isotropic =    29.0069   Anisotropy =     6.9504

      9  H    Isotropic =    27.2374   Anisotropy =     4.6531

     10  H    Isotropic =    28.6934   Anisotropy =     3.3793

     11  H    Isotropic =    29.8968   Anisotropy =     8.5789

     12  H    Isotropic =    30.4727   Anisotropy =    10.7804

     13  H    Isotropic =    29.9712   Anisotropy =     8.6420

     14  C    Isotropic =   146.1386   Anisotropy =    31.9399

     15  H    Isotropic =    28.5198   Anisotropy =     9.1883

     16  H    Isotropic =    29.0576   Anisotropy =    11.3615

     17  O    Isotropic =   311.5951   Anisotropy =   126.6447

     18  O    Isotropic =   309.4161   Anisotropy =    41.2034

     19  H    Isotropic =    29.8045   Anisotropy =    13.9979

     20  O    Isotropic =   293.7404   Anisotropy =    74.2854

     21  C    Isotropic =   136.1394   Anisotropy =    85.9342

     22  H    Isotropic =    28.3608   Anisotropy =     9.9707

     23  H    Isotropic =    27.1443   Anisotropy =     8.7102

     24  H    Isotropic =    27.8603   Anisotropy =    10.1220

     25  O    Isotropic =   291.9907   Anisotropy =    25.7362

     26  Si   Isotropic =   380.6660   Anisotropy =    34.5704

     27  C    Isotropic =   201.4526   Anisotropy =     5.8773

     28  H    Isotropic =    31.6080   Anisotropy =    10.7096

     29  H    Isotropic =    31.6158   Anisotropy =    10.0210

     30  H    Isotropic =    31.1638   Anisotropy =     7.7811

     31  C    Isotropic =   171.9716   Anisotropy =     8.2523

     32  C    Isotropic =   198.3322   Anisotropy =     7.6576

     33  H    Isotropic =    31.6327   Anisotropy =    10.7659

     34  H    Isotropic =    31.2245   Anisotropy =     8.3643

     35  H    Isotropic =    31.5941   Anisotropy =     9.6342

     36  C    Isotropic =   171.3418   Anisotropy =    35.9275

     37  H    Isotropic =    30.6018   Anisotropy =     8.3318

     38  H    Isotropic =    31.1227   Anisotropy =     9.0490

     39  H    Isotropic =    29.6375   Anisotropy =    10.2305

     40  C    Isotropic =   169.0350   Anisotropy =    41.0744

     41  H    Isotropic =    30.7318   Anisotropy =     9.0625

     42  H    Isotropic =    30.7613   Anisotropy =     9.2299

     43  H    Isotropic =    30.9979   Anisotropy =     9.9683

     44  C    Isotropic =   170.8174   Anisotropy =    34.8824

     45  H    Isotropic =    31.1205   Anisotropy =     9.0781

     46  H    Isotropic =    30.7151   Anisotropy =     8.0689

     47  H    Isotropic =    29.6530   Anisotropy =    10.3629

 The electronic state is 1-A.
 Alpha  occ. eigenvalues --  -66.30262 -19.27157 -19.25247 -19.25042 -19.23224
 Alpha  occ. eigenvalues --  -10.31882 -10.30817 -10.30559 -10.30295 -10.30227
 Alpha  occ. eigenvalues --  -10.28125 -10.25510 -10.25111 -10.24315 -10.23369
 Alpha  occ. eigenvalues --  -10.22754 -10.22589 -10.22444 -10.22150  -5.33634
 Alpha  occ. eigenvalues --   -3.67551  -3.67281  -3.67213  -1.11550  -1.07238
 Alpha  occ. eigenvalues --   -1.05226  -1.02967  -0.84546  -0.81743  -0.77466
 Alpha  occ. eigenvalues --   -0.75375  -0.72121  -0.70259  -0.69964  -0.69749
 Alpha  occ. eigenvalues --   -0.69169  -0.69019  -0.63802  -0.61926  -0.59232
 Alpha  occ. eigenvalues --   -0.56411  -0.55056  -0.52545  -0.51877  -0.50617
 Alpha  occ. eigenvalues --   -0.48303  -0.48051  -0.47555  -0.46797  -0.45699
 Alpha  occ. eigenvalues --   -0.44610  -0.44170  -0.43777  -0.42813  -0.42041
 Alpha  occ. eigenvalues --   -0.41597  -0.41104  -0.40585  -0.40237  -0.39971
 Alpha  occ. eigenvalues --   -0.39470  -0.38938  -0.38599  -0.38372  -0.38041
 Alpha  occ. eigenvalues --   -0.36769  -0.36461  -0.35313  -0.34289  -0.33836
 Alpha  occ. eigenvalues --   -0.33177  -0.32630  -0.32419  -0.30942  -0.30794
 Alpha  occ. eigenvalues --   -0.29780  -0.29613  -0.26061  -0.25632
 Alpha virt. eigenvalues --   -0.00253   0.00768   0.01473   0.01566   0.02426
 Alpha virt. eigenvalues --    0.02954   0.03311   0.03759   0.03856   0.04682
 Alpha virt. eigenvalues --    0.05102   0.05148   0.06082   0.06117   0.06632

 Mulliken atomic charges:
              1
     1  H    0.141776
     2  C    0.481481
     3  C   -0.400824
     4  C    0.047509
     5  C    0.288669
     6  C   -0.719190
     7  C   -0.470062
     8  H    0.195893
     9  H    0.190295
    10  H    0.146156
    11  H    0.176518
    12  H    0.171630
    13  H    0.170119
    14  C   -0.172117
    15  H    0.184161
    16  H    0.175400
    17  O   -0.397973
    18  O   -0.538582
    19  H    0.383579
    20  O   -0.188606
    21  C   -0.174097
    22  H    0.142452
    23  H    0.176130
    24  H    0.161677
    25  O   -0.186404
    26  Si   0.451701
    27  C   -0.679319
    28  H    0.190209
    29  H    0.185320
    30  H    0.184883
    31  C   -0.016624
    32  C   -0.694591
    33  H    0.186854
    34  H    0.188317
    35  H    0.183836
    36  C   -0.584160
    37  H    0.158860
    38  H    0.154727
    39  H    0.195793
    40  C   -0.451341
    41  H    0.168539
    42  H    0.163682
    43  H    0.164818
    44  C   -0.642382
    45  H    0.156488
    46  H    0.160695
    47  H    0.188105
 Sum of Mulliken atomic charges =   0.00000

 Dipole moment (field-independent basis, Debye):
    X=              0.0332    Y=             -2.0390    Z=              1.0718  Tot=              2.3038
 Quadrupole moment (field-independent basis, Debye-Ang):
   XX=           -127.4835   YY=           -122.0733   ZZ=           -124.8602
   XY=              1.9882   XZ=              2.9228   YZ=              4.5162

 Normal termination of Gaussian 09 at Tue Dec  6 15:35:21 2022.
