 Gaussian 09, Revision C.01,
 Gaussian 09:  EM64L-G09RevC.01 23-Sep-2011

 -----------------------------------------------------
 # mPW1PW91/6-31+g** scrf=(PCM,solvent=chloroform) nmr
 -----------------------------------------------------

 99/9=1/99;
 -------
 comment
 -------
 Charge =  0 Multiplicity = 1

                         Standard orientation:
 ---------------------------------------------------------------------
 Center     Atomic      Atomic             Coordinates (Angstroms)
 Number     Number       Type             X           Y           Z
 ---------------------------------------------------------------------
      1          1           0       -0.222591   -0.720391    0.815908
      2          6           0       -0.438033   -0.062454   -0.036942
      3          6           0       -2.266523   -1.663108   -0.742074
      4          6           0       -2.752028    0.211347    0.935202
      5          6           0       -3.291386   -0.715866   -0.145866
      6          6           0       -1.495008    0.951287    0.448613
      7          6           0       -1.001393   -0.906103   -1.186618
      8          1           0       -2.709791   -2.215335   -1.577655
      9          1           0       -3.517771    0.958592    1.186554
     10          1           0       -1.081720    1.535804    1.284398
     11          1           0       -0.238744   -1.614664   -1.528187
     12          1           0       -2.001759   -2.401622    0.025897
     13          1           0       -1.228134   -0.237580   -2.024421
     14          6           0       -4.519144   -0.349240   -0.859531
     15          1           0       -5.002581    0.605599   -0.655111
     16          1           0       -4.702900   -0.759489   -1.852671
     17          8           0       -4.561565   -1.308164    0.212724
     18          8           0       -2.389419   -0.542722    2.090515
     19          1           0       -3.172252   -1.068820    2.324796
     20          8           0       -1.951282    1.818499   -0.581421
     21          6           0       -1.179110    2.989820   -0.797499
     22          1           0       -1.003558    3.528434    0.146982
     23          1           0       -1.768215    3.629716   -1.461388
     24          1           0       -0.213930    2.767033   -1.262427
     25          8           0        0.744294    0.614780   -0.458619
     26         14           0        2.264448    0.581878    0.263070
     27          6           0        3.121272    2.119790   -0.411788
     28          1           0        4.138250    2.227755   -0.016994
     29          1           0        2.559838    3.019173   -0.133312
     30          1           0        3.186582    2.096949   -1.505313
     31          6           0        3.231879   -1.006979   -0.222330
     32          6           0        2.092336    0.703958    2.144620
     33          1           0        3.071375    0.651440    2.636132
     34          1           0        1.471139   -0.095389    2.565010
     35          1           0        1.633515    1.658650    2.428412
     36          6           0        2.553967   -2.265172    0.362222
     37          1           0        2.501488   -2.234570    1.457340
     38          1           0        3.121596   -3.166883    0.088929
     39          1           0        1.534322   -2.399197   -0.018474
     40          6           0        4.672110   -0.921709    0.329819
     41          1           0        4.691007   -0.843154    1.423831
     42          1           0        5.219853   -0.063306   -0.077525
     43          1           0        5.238153   -1.825290    0.060332
     44          6           0        3.291374   -1.136953   -1.759304
     45          1           0        3.831066   -2.051103   -2.047373
     46          1           0        3.815086   -0.291071   -2.221004
     47          1           0        2.290292   -1.188432   -2.202379
 ---------------------------------------------------------------------

 SCF Done:  E(RmPW1PW91) =  -1140.62352208     A.U. after   13 cycles

      1  H    Isotropic =    27.0993   Anisotropy =     8.8795

      2  C    Isotropic =   122.1689   Anisotropy =    54.2849

      3  C    Isotropic =   166.9261   Anisotropy =    26.3939

      4  C    Isotropic =   116.1726   Anisotropy =    23.2934

      5  C    Isotropic =   134.9504   Anisotropy =    55.2559

      6  C    Isotropic =   113.1144   Anisotropy =    45.4350

      7  C    Isotropic =   166.9473   Anisotropy =    27.9255

      8  H    Isotropic =    30.5707   Anisotropy =    10.1325

      9  H    Isotropic =    28.3358   Anisotropy =     5.2660

     10  H    Isotropic =    27.9585   Anisotropy =     2.1266

     11  H    Isotropic =    29.7460   Anisotropy =     9.5429

     12  H    Isotropic =    29.2869   Anisotropy =     6.2883

     13  H    Isotropic =    29.2649   Anisotropy =     3.9843

     14  C    Isotropic =   139.0240   Anisotropy =    34.4031

     15  H    Isotropic =    28.8253   Anisotropy =     9.1155

     16  H    Isotropic =    28.7799   Anisotropy =     9.7729

     17  O    Isotropic =   315.0109   Anisotropy =   136.3370

     18  O    Isotropic =   295.1193   Anisotropy =    55.2929

     19  H    Isotropic =    29.9435   Anisotropy =    18.5865

     20  O    Isotropic =   311.5857   Anisotropy =    46.2996

     21  C    Isotropic =   135.4118   Anisotropy =    84.8805

     22  H    Isotropic =    28.2602   Anisotropy =     8.8513

     23  H    Isotropic =    27.8935   Anisotropy =    10.8416

     24  H    Isotropic =    27.1904   Anisotropy =     7.1519

     25  O    Isotropic =   281.0502   Anisotropy =    38.8022

     26  Si   Isotropic =   377.7998   Anisotropy =    36.9875

     27  C    Isotropic =   198.8262   Anisotropy =     7.2278

     28  H    Isotropic =    31.6286   Anisotropy =    10.7027

     29  H    Isotropic =    31.5686   Anisotropy =     9.5837

     30  H    Isotropic =    31.2923   Anisotropy =     8.8579

     31  C    Isotropic =   171.6239   Anisotropy =     7.7863

     32  C    Isotropic =   201.4842   Anisotropy =     7.7543

     33  H    Isotropic =    31.5284   Anisotropy =    10.7530

     34  H    Isotropic =    30.9806   Anisotropy =     7.8666

     35  H    Isotropic =    31.5528   Anisotropy =     9.8900

     36  C    Isotropic =   170.2972   Anisotropy =    38.1430

     37  H    Isotropic =    30.4324   Anisotropy =     7.4621

     38  H    Isotropic =    30.9203   Anisotropy =     9.4343

     39  H    Isotropic =    30.3936   Anisotropy =     9.4005

     40  C    Isotropic =   169.3643   Anisotropy =    40.2961

     41  H    Isotropic =    30.6863   Anisotropy =     8.7706

     42  H    Isotropic =    30.7106   Anisotropy =     9.1557

     43  H    Isotropic =    30.9897   Anisotropy =    10.0124

     44  C    Isotropic =   170.3532   Anisotropy =    36.8815

     45  H    Isotropic =    31.0045   Anisotropy =     9.5679

     46  H    Isotropic =    30.5621   Anisotropy =     8.7262

     47  H    Isotropic =    30.2954   Anisotropy =     7.8777

 The electronic state is 1-A.
 Alpha  occ. eigenvalues --  -66.30434 -19.26794 -19.25967 -19.25462 -19.23456
 Alpha  occ. eigenvalues --  -10.31477 -10.30943 -10.30464 -10.30420 -10.30305
 Alpha  occ. eigenvalues --  -10.28380 -10.25419 -10.24813 -10.24712 -10.23663
 Alpha  occ. eigenvalues --  -10.23631 -10.23396 -10.22467 -10.22341  -5.33831
 Alpha  occ. eigenvalues --   -3.67741  -3.67471  -3.67419  -1.11311  -1.07478
 Alpha  occ. eigenvalues --   -1.06151  -1.03022  -0.84558  -0.82312  -0.77954
 Alpha  occ. eigenvalues --   -0.74792  -0.72126  -0.70622  -0.70262  -0.69727
 Alpha  occ. eigenvalues --   -0.69597  -0.68814  -0.64839  -0.62451  -0.57424
 Alpha  occ. eigenvalues --   -0.57239  -0.54024  -0.53791  -0.52839  -0.50291
 Alpha  occ. eigenvalues --   -0.48508  -0.48269  -0.47974  -0.46577  -0.44818
 Alpha  occ. eigenvalues --   -0.44701  -0.44594  -0.44155  -0.43257  -0.42816
 Alpha  occ. eigenvalues --   -0.42486  -0.41223  -0.40895  -0.40220  -0.39917
 Alpha  occ. eigenvalues --   -0.39626  -0.39338  -0.38935  -0.38880  -0.37352
 Alpha  occ. eigenvalues --   -0.37197  -0.36266  -0.35857  -0.34965  -0.33865
 Alpha  occ. eigenvalues --   -0.33648  -0.33232  -0.31696  -0.31408  -0.30843
 Alpha  occ. eigenvalues --   -0.29670  -0.28532  -0.27771  -0.25568
 Alpha virt. eigenvalues --   -0.00186   0.00927   0.01217   0.01468   0.02083
 Alpha virt. eigenvalues --    0.02940   0.03217   0.03752   0.04093   0.04391
 Alpha virt. eigenvalues --    0.04549   0.05394   0.05710   0.06174   0.06461

 Mulliken atomic charges:
              1
     1  H    0.160102
     2  C   -0.327274
     3  C   -0.305327
     4  C   -0.064503
     5  C   -0.297278
     6  C   -0.133572
     7  C   -0.038466
     8  H    0.171926
     9  H    0.161619
    10  H    0.148355
    11  H    0.162176
    12  H    0.188287
    13  H    0.186689
    14  C   -0.035316
    15  H    0.172819
    16  H    0.172386
    17  O   -0.357525
    18  O   -0.495267
    19  H    0.381342
    20  O   -0.224961
    21  C   -0.156748
    22  H    0.140665
    23  H    0.161005
    24  H    0.174318
    25  O   -0.298654
    26  Si   0.899175
    27  C   -0.725726
    28  H    0.186302
    29  H    0.185503
    30  H    0.188211
    31  C   -0.025949
    32  C   -0.712176
    33  H    0.187995
    34  H    0.189581
    35  H    0.187557
    36  C   -0.590296
    37  H    0.168593
    38  H    0.165416
    39  H    0.164725
    40  C   -0.523464
    41  H    0.166600
    42  H    0.168557
    43  H    0.166344
    44  C   -0.597347
    45  H    0.163119
    46  H    0.166813
    47  H    0.173669
 Sum of Mulliken atomic charges =   0.00000

 Dipole moment (field-independent basis, Debye):
    X=              1.3609    Y=              1.0429    Z=             -0.5933  Tot=              1.8143
 Quadrupole moment (field-independent basis, Debye-Ang):
   XX=           -127.7767   YY=           -122.9178   ZZ=           -126.5607
   XY=             -4.3848   XZ=              5.1842   YZ=              1.9076

 Normal termination of Gaussian 09 at Tue Dec  6 14:10:21 2022.
