 Gaussian 09, Revision C.01,
 Gaussian 09:  EM64L-G09RevC.01 23-Sep-2011

 -----------------------------------------------------
 # mPW1PW91/6-31+g** scrf=(PCM,solvent=chloroform) nmr
 -----------------------------------------------------

 99/9=1/99;
 -------
 comment
 -------
 Charge =  0 Multiplicity = 1

                         Standard orientation:
 ---------------------------------------------------------------------
 Center     Atomic      Atomic             Coordinates (Angstroms)
 Number     Number       Type             X           Y           Z
 ---------------------------------------------------------------------
      1          1           0       -0.598399   -1.242795    0.653119
      2          6           0       -0.595798   -0.342858    0.018761
      3          6           0       -2.630446   -1.284003   -1.134520
      4          6           0       -2.881366    0.136712    0.990373
      5          6           0       -3.509430   -0.366135   -0.304202
      6          6           0       -1.461142    0.701879    0.751383
      7          6           0       -1.223420   -0.693327   -1.333744
      8          1           0       -3.115776   -1.462400   -2.099931
      9          1           0       -3.508335    0.946444    1.387210
     10          1           0       -0.995190    0.923727    1.729123
     11          1           0       -0.581881   -1.407876   -1.861056
     12          1           0       -2.555993   -2.250833   -0.618708
     13          1           0       -1.277973    0.217285   -1.939743
     14          8           0       -4.249159    0.629359   -1.032288
     15          6           0       -4.973111   -0.433998   -0.398258
     16          8           0       -2.843810   -0.982260    1.881893
     17          1           0       -2.477497   -0.673497    2.725679
     18          8           0       -1.640773    1.901549    0.023079
     19          6           0       -0.613515    2.872644    0.138033
     20          1           0       -0.353997    3.054607    1.193088
     21          1           0        0.293254    2.580415   -0.400512
     22          1           0       -1.014709    3.795790   -0.290167
     23          8           0        0.736385    0.146615   -0.140151
     24         14           0        2.128344   -0.729204    0.221798
     25          6           0        2.166354   -1.127487    2.072596
     26          1           0        3.064806   -1.696833    2.340053
     27          1           0        1.301704   -1.737814    2.361583
     28          1           0        2.150441   -0.219877    2.686347
     29          6           0        3.577996    0.407517   -0.290519
     30          6           0        2.146378   -2.360671   -0.737817
     31          1           0        3.034133   -2.956630   -0.493517
     32          1           0        2.139996   -2.198409   -1.821527
     33          1           0        1.269998   -2.972742   -0.491360
     34          6           0        3.456595    0.769545   -1.786666
     35          1           0        3.509751   -0.118820   -2.427916
     36          1           0        4.278087    1.436771   -2.085910
     37          1           0        2.513020    1.281997   -2.003367
     38          6           0        4.920362   -0.319401   -0.054477
     39          1           0        5.001492   -1.237230   -0.649494
     40          1           0        5.065839   -0.588337    0.999332
     41          1           0        5.759975    0.329640   -0.342114
     42          6           0        3.557029    1.706903    0.542714
     43          1           0        2.619791    2.258648    0.410027
     44          1           0        4.379349    2.369796    0.236255
     45          1           0        3.681401    1.509831    1.614626
     46          1           0       -5.433863   -1.156127   -1.073440
     47          1           0       -5.586306   -0.141912    0.454943
 ---------------------------------------------------------------------

 SCF Done:  E(RmPW1PW91) =  -1140.62010044     A.U. after   13 cycles

      1  H    Isotropic =    27.2938   Anisotropy =     8.9467

      2  C    Isotropic =   122.5030   Anisotropy =    52.7799

      3  C    Isotropic =   165.4074   Anisotropy =    22.7822

      4  C    Isotropic =   115.8405   Anisotropy =    29.9262

      5  C    Isotropic =   138.4318   Anisotropy =    57.4547

      6  C    Isotropic =   110.3915   Anisotropy =    45.9694

      7  C    Isotropic =   167.1829   Anisotropy =    29.8728

      8  H    Isotropic =    30.5000   Anisotropy =    10.4169

      9  H    Isotropic =    28.2852   Anisotropy =     4.7427

     10  H    Isotropic =    28.3335   Anisotropy =     2.1603

     11  H    Isotropic =    30.1114   Anisotropy =     8.7751

     12  H    Isotropic =    29.2466   Anisotropy =     7.2345

     13  H    Isotropic =    29.1652   Anisotropy =     3.9296

     14  O    Isotropic =   295.7332   Anisotropy =   135.6320

     15  C    Isotropic =   146.3702   Anisotropy =    42.9141

     16  O    Isotropic =   289.1064   Anisotropy =    73.3236

     17  H    Isotropic =    30.5662   Anisotropy =    18.2029

     18  O    Isotropic =   311.7363   Anisotropy =    46.5514

     19  C    Isotropic =   135.1180   Anisotropy =    83.9586

     20  H    Isotropic =    28.3584   Anisotropy =     8.3138

     21  H    Isotropic =    27.1555   Anisotropy =     7.8987

     22  H    Isotropic =    27.8031   Anisotropy =    10.5024

     23  O    Isotropic =   277.6617   Anisotropy =    36.7937

     24  Si   Isotropic =   380.5416   Anisotropy =    41.1814

     25  C    Isotropic =   200.8303   Anisotropy =    10.4274

     26  H    Isotropic =    31.6652   Anisotropy =    10.8313

     27  H    Isotropic =    31.2371   Anisotropy =     8.8304

     28  H    Isotropic =    31.5451   Anisotropy =     8.9188

     29  C    Isotropic =   174.0947   Anisotropy =     7.6952

     30  C    Isotropic =   199.7893   Anisotropy =     8.0541

     31  H    Isotropic =    31.6589   Anisotropy =    10.8142

     32  H    Isotropic =    31.4324   Anisotropy =     8.5962

     33  H    Isotropic =    31.3435   Anisotropy =     8.4413

     34  C    Isotropic =   170.4593   Anisotropy =    38.0483

     35  H    Isotropic =    30.5487   Anisotropy =     8.4511

     36  H    Isotropic =    30.9890   Anisotropy =     9.7387

     37  H    Isotropic =    30.2180   Anisotropy =     7.9670

     38  C    Isotropic =   170.2822   Anisotropy =    39.4873

     39  H    Isotropic =    30.7088   Anisotropy =     9.0115

     40  H    Isotropic =    30.6799   Anisotropy =     9.2314

     41  H    Isotropic =    30.8890   Anisotropy =    10.1425

     42  C    Isotropic =   170.1341   Anisotropy =    38.0520

     43  H    Isotropic =    30.3245   Anisotropy =     8.7273

     44  H    Isotropic =    31.0014   Anisotropy =     9.6311

     45  H    Isotropic =    30.5436   Anisotropy =     8.4451

     46  H    Isotropic =    29.1280   Anisotropy =    11.0576

     47  H    Isotropic =    29.0263   Anisotropy =    10.9169

 The electronic state is 1-A.
 Alpha  occ. eigenvalues --  -66.30409 -19.26341 -19.26184 -19.25207 -19.23426
 Alpha  occ. eigenvalues --  -10.31350 -10.31092 -10.30462 -10.30375 -10.29811
 Alpha  occ. eigenvalues --  -10.28216 -10.25206 -10.24898 -10.24348 -10.23708
 Alpha  occ. eigenvalues --  -10.23450 -10.23328 -10.22527 -10.22472  -5.33823
 Alpha  occ. eigenvalues --   -3.67727  -3.67450  -3.67431  -1.11000  -1.07498
 Alpha  occ. eigenvalues --   -1.06315  -1.02994  -0.84283  -0.82300  -0.77646
 Alpha  occ. eigenvalues --   -0.74960  -0.72332  -0.70547  -0.70276  -0.69694
 Alpha  occ. eigenvalues --   -0.69602  -0.68318  -0.65025  -0.61754  -0.57336
 Alpha  occ. eigenvalues --   -0.57096  -0.53898  -0.53443  -0.52330  -0.51144
 Alpha  occ. eigenvalues --   -0.49307  -0.48120  -0.47247  -0.45897  -0.45451
 Alpha  occ. eigenvalues --   -0.44671  -0.44258  -0.43641  -0.42986  -0.42118
 Alpha  occ. eigenvalues --   -0.41888  -0.41363  -0.40824  -0.40436  -0.40284
 Alpha  occ. eigenvalues --   -0.39888  -0.39220  -0.39058  -0.38865  -0.38446
 Alpha  occ. eigenvalues --   -0.37339  -0.36551  -0.35277  -0.34262  -0.33918
 Alpha  occ. eigenvalues --   -0.33388  -0.32867  -0.31922  -0.31217  -0.30240
 Alpha  occ. eigenvalues --   -0.28905  -0.28317  -0.27601  -0.26096
 Alpha virt. eigenvalues --   -0.00569   0.00586   0.01207   0.01465   0.02561
 Alpha virt. eigenvalues --    0.02921   0.03071   0.03780   0.04073   0.04599
 Alpha virt. eigenvalues --    0.04676   0.04974   0.05430   0.06362   0.06495

 Mulliken atomic charges:
              1
     1  H    0.151515
     2  C   -0.526730
     3  C   -0.470535
     4  C   -0.114651
     5  C    0.183988
     6  C   -0.035260
     7  C   -0.194854
     8  H    0.173019
     9  H    0.161534
    10  H    0.130760
    11  H    0.168459
    12  H    0.188073
    13  H    0.192176
    14  O   -0.321605
    15  C   -0.094353
    16  O   -0.478369
    17  H    0.376917
    18  O   -0.233284
    19  C   -0.164892
    20  H    0.136720
    21  H    0.166712
    22  H    0.162081
    23  O   -0.270165
    24  Si   0.836658
    25  C   -0.682528
    26  H    0.188978
    27  H    0.182916
    28  H    0.184536
    29  C   -0.001010
    30  C   -0.696726
    31  H    0.188523
    32  H    0.188297
    33  H    0.186274
    34  C   -0.584658
    35  H    0.164785
    36  H    0.162770
    37  H    0.178943
    38  C   -0.554703
    39  H    0.169724
    40  H    0.167761
    41  H    0.166785
    42  C   -0.573636
    43  H    0.172031
    44  H    0.163850
    45  H    0.164621
    46  H    0.169544
    47  H    0.169011
 Sum of Mulliken atomic charges =   0.00000

 Dipole moment (field-independent basis, Debye):
    X=              2.0545    Y=             -1.7553    Z=              2.7110  Tot=              3.8277
 Quadrupole moment (field-independent basis, Debye-Ang):
   XX=           -128.1730   YY=           -126.0652   ZZ=           -121.6803
   XY=              5.2555   XZ=             -5.1647   YZ=              6.2296

 Normal termination of Gaussian 09 at Tue Dec  6 21:49:42 2022.
