 Gaussian 09, Revision C.01,
 Gaussian 09:  EM64L-G09RevC.01 23-Sep-2011

 -----------------------------------------------------
 # mPW1PW91/6-31+g** scrf=(PCM,solvent=chloroform) nmr
 -----------------------------------------------------

 99/9=1/99;
 -------
 comment
 -------
 Charge =  0 Multiplicity = 1

                         Standard orientation:
 ---------------------------------------------------------------------
 Center     Atomic      Atomic             Coordinates (Angstroms)
 Number     Number       Type             X           Y           Z
 ---------------------------------------------------------------------
      1          1           0        0.225555    0.552405   -2.199634
      2          6           0        0.589307    0.113843   -1.258660
      3          6           0        1.822236   -1.882463   -0.264617
      4          6           0        2.361129    0.462968    0.560785
      5          6           0        2.877709   -0.950291    0.307541
      6          6           0        1.733033    1.003579   -0.740109
      7          6           0        1.167943   -1.290512   -1.524924
      8          1           0        1.052981   -2.050278    0.499395
      9          1           0        1.591480    0.395914    1.344894
     10          1           0        2.516020    0.965641   -1.508897
     11          1           0        1.908946   -1.217128   -2.332704
     12          1           0        2.275075   -2.855640   -0.481532
     13          1           0        0.372565   -1.950721   -1.884377
     14          8           0        3.706126   -1.509417    1.330654
     15          6           0        4.311240   -1.181685    0.067032
     16          8           0        3.404869    1.325993    0.979875
     17          1           0        3.191549    2.194865    0.596563
     18          8           0        1.470404    2.405233   -0.650998
     19          6           0        0.519509    2.866719    0.308053
     20          1           0       -0.500712    2.578295    0.045438
     21          1           0        0.601920    3.957176    0.298294
     22          1           0        0.738931    2.505274    1.320436
     23          8           0       -0.471567    0.044349   -0.304491
     24         14           0       -2.117155   -0.127750   -0.642850
     25          6           0       -2.740022    1.396919   -1.576142
     26          1           0       -3.780731    1.261956   -1.894818
     27          1           0       -2.146477    1.575387   -2.481231
     28          1           0       -2.693881    2.308412   -0.969967
     29          6           0       -2.943668   -0.309317    1.072227
     30          6           0       -2.437899   -1.641222   -1.733788
     31          1           0       -3.513371   -1.769460   -1.908168
     32          1           0       -2.062279   -2.567000   -1.284416
     33          1           0       -1.965630   -1.531662   -2.717661
     34          6           0       -2.443439   -1.596219    1.763218
     35          1           0       -2.703885   -2.496297    1.193199
     36          1           0       -2.899973   -1.697884    2.758383
     37          1           0       -1.355919   -1.586032    1.898021
     38          6           0       -4.477492   -0.386402    0.904064
     39          1           0       -4.785664   -1.246884    0.297112
     40          1           0       -4.886469    0.517758    0.436474
     41          1           0       -4.962143   -0.492447    1.885094
     42          6           0       -2.596117    0.902522    1.962984
     43          1           0       -3.076294    0.801593    2.947000
     44          1           0       -2.945581    1.847066    1.527693
     45          1           0       -1.516477    0.985836    2.127328
     46          1           0        4.622199   -2.037464   -0.534513
     47          1           0        4.998961   -0.340099    0.096197
 ---------------------------------------------------------------------

 SCF Done:  E(RmPW1PW91) =  -1140.62027605     A.U. after   13 cycles

      1  H    Isotropic =    27.1084   Anisotropy =     4.5761

      2  C    Isotropic =   122.5524   Anisotropy =    40.7339

      3  C    Isotropic =   167.2094   Anisotropy =    32.1661

      4  C    Isotropic =   132.4762   Anisotropy =    60.2720

      5  C    Isotropic =   133.5496   Anisotropy =    61.7973

      6  C    Isotropic =   113.4471   Anisotropy =    34.6933

      7  C    Isotropic =   163.6455   Anisotropy =    20.6456

      8  H    Isotropic =    29.1585   Anisotropy =     6.7640

      9  H    Isotropic =    26.8022   Anisotropy =     5.4722

     10  H    Isotropic =    28.2938   Anisotropy =     4.3471

     11  H    Isotropic =    30.0975   Anisotropy =     9.2496

     12  H    Isotropic =    30.5630   Anisotropy =    10.3301

     13  H    Isotropic =    29.8601   Anisotropy =     9.1994

     14  O    Isotropic =   308.4663   Anisotropy =   113.8500

     15  C    Isotropic =   146.4911   Anisotropy =    35.6859

     16  O    Isotropic =   313.6374   Anisotropy =    39.7833

     17  H    Isotropic =    29.2380   Anisotropy =    17.5071

     18  O    Isotropic =   312.2857   Anisotropy =    56.4627

     19  C    Isotropic =   142.9224   Anisotropy =    67.9916

     20  H    Isotropic =    27.7778   Anisotropy =     8.7736

     21  H    Isotropic =    28.2545   Anisotropy =     9.9425

     22  H    Isotropic =    28.0245   Anisotropy =     7.0220

     23  O    Isotropic =   284.0636   Anisotropy =    31.6852

     24  Si   Isotropic =   379.4762   Anisotropy =    40.7969

     25  C    Isotropic =   201.1122   Anisotropy =    11.0390

     26  H    Isotropic =    31.6561   Anisotropy =    11.0206

     27  H    Isotropic =    31.1344   Anisotropy =     8.8375

     28  H    Isotropic =    31.3775   Anisotropy =     8.8012

     29  C    Isotropic =   173.0033   Anisotropy =     8.5337

     30  C    Isotropic =   198.3777   Anisotropy =     7.1240

     31  H    Isotropic =    31.5643   Anisotropy =    10.8679

     32  H    Isotropic =    31.4103   Anisotropy =     8.0751

     33  H    Isotropic =    31.3770   Anisotropy =     8.4142

     34  C    Isotropic =   170.5809   Anisotropy =    37.6279

     35  H    Isotropic =    30.5178   Anisotropy =     8.2222

     36  H    Isotropic =    30.8840   Anisotropy =     9.6833

     37  H    Isotropic =    30.1959   Anisotropy =     8.6030

     38  C    Isotropic =   170.8195   Anisotropy =    39.0630

     39  H    Isotropic =    30.6543   Anisotropy =     9.3583

     40  H    Isotropic =    30.7074   Anisotropy =     9.0898

     41  H    Isotropic =    30.9153   Anisotropy =    10.1666

     42  C    Isotropic =   170.5368   Anisotropy =    36.9765

     43  H    Isotropic =    30.9428   Anisotropy =     9.5299

     44  H    Isotropic =    30.5465   Anisotropy =     8.0192

     45  H    Isotropic =    30.1946   Anisotropy =     8.7167

     46  H    Isotropic =    29.0635   Anisotropy =    10.8135

     47  H    Isotropic =    28.1935   Anisotropy =     8.6425

 The electronic state is 1-A.
 Alpha  occ. eigenvalues --  -66.30793 -19.26674 -19.26076 -19.25196 -19.23939
 Alpha  occ. eigenvalues --  -10.31509 -10.31397 -10.31116 -10.30663 -10.29557
 Alpha  occ. eigenvalues --  -10.28869 -10.25600 -10.25393 -10.25067 -10.23812
 Alpha  occ. eigenvalues --  -10.23507 -10.23489 -10.22771 -10.22719  -5.34187
 Alpha  occ. eigenvalues --   -3.68100  -3.67815  -3.67788  -1.11012  -1.08356
 Alpha  occ. eigenvalues --   -1.05223  -1.03594  -0.85093  -0.82433  -0.77656
 Alpha  occ. eigenvalues --   -0.75386  -0.72678  -0.71226  -0.70687  -0.70371
 Alpha  occ. eigenvalues --   -0.69788  -0.68565  -0.64089  -0.62106  -0.58710
 Alpha  occ. eigenvalues --   -0.56626  -0.54756  -0.52936  -0.52207  -0.50408
 Alpha  occ. eigenvalues --   -0.49967  -0.48531  -0.47705  -0.46407  -0.45619
 Alpha  occ. eigenvalues --   -0.45427  -0.44776  -0.44459  -0.43701  -0.43086
 Alpha  occ. eigenvalues --   -0.41916  -0.41255  -0.40987  -0.40606  -0.40433
 Alpha  occ. eigenvalues --   -0.39529  -0.39240  -0.39093  -0.38669  -0.38044
 Alpha  occ. eigenvalues --   -0.37428  -0.37072  -0.36127  -0.34916  -0.33998
 Alpha  occ. eigenvalues --   -0.33856  -0.32604  -0.32353  -0.31784  -0.30867
 Alpha  occ. eigenvalues --   -0.28782  -0.28029  -0.27721  -0.27176
 Alpha virt. eigenvalues --   -0.00440   0.00766   0.01026   0.01495   0.02519
 Alpha virt. eigenvalues --    0.02653   0.03281   0.03584   0.03941   0.04706
 Alpha virt. eigenvalues --    0.04987   0.05300   0.05865   0.06055   0.06587

 Mulliken atomic charges:
              1
     1  H    0.151160
     2  C    0.290838
     3  C   -0.097087
     4  C    0.143997
     5  C   -0.106800
     6  C   -0.631463
     7  C   -0.453979
     8  H    0.188959
     9  H    0.173263
    10  H    0.181125
    11  H    0.176011
    12  H    0.169717
    13  H    0.169650
    14  O   -0.336634
    15  C   -0.117846
    16  O   -0.528925
    17  H    0.387552
    18  O   -0.289752
    19  C   -0.162185
    20  H    0.157132
    21  H    0.168605
    22  H    0.156090
    23  O   -0.258720
    24  Si   0.440615
    25  C   -0.659127
    26  H    0.191408
    27  H    0.183490
    28  H    0.183262
    29  C    0.055080
    30  C   -0.686794
    31  H    0.190128
    32  H    0.189375
    33  H    0.188379
    34  C   -0.564475
    35  H    0.165009
    36  H    0.165139
    37  H    0.176341
    38  C   -0.545900
    39  H    0.167800
    40  H    0.170552
    41  H    0.168249
    42  C   -0.568925
    43  H    0.164929
    44  H    0.165124
    45  H    0.180431
    46  H    0.165128
    47  H    0.184072
 Sum of Mulliken atomic charges =   0.00000

 Dipole moment (field-independent basis, Debye):
    X=             -3.8533    Y=              0.0359    Z=             -4.0076  Tot=              5.5597
 Quadrupole moment (field-independent basis, Debye-Ang):
   XX=           -133.3913   YY=           -124.7099   ZZ=           -129.3346
   XY=             -0.4097   XZ=            -12.8876   YZ=              7.0794

 Normal termination of Gaussian 09 at Tue Dec  6 22:11:50 2022.
