 Gaussian 09, Revision C.01,
 Gaussian 09:  EM64L-G09RevC.01 23-Sep-2011

 -----------------------------------------------------
 # mPW1PW91/6-31+g** scrf=(PCM,solvent=chloroform) nmr
 -----------------------------------------------------

 99/9=1/99;
 -------
 comment
 -------
 Charge =  0 Multiplicity = 1

                         Standard orientation:
 ---------------------------------------------------------------------
 Center     Atomic      Atomic             Coordinates (Angstroms)
 Number     Number       Type             X           Y           Z
 ---------------------------------------------------------------------
      1          1           0        0.070640    0.381982   -2.060039
      2          6           0        0.487612   -0.097746   -1.164102
      3          6           0        1.813255   -2.113240   -0.354256
      4          6           0        2.277549    0.207228    0.599175
      5          6           0        2.847855   -1.150535    0.186900
      6          6           0        1.565251    0.854065   -0.597816
      7          6           0        1.099266   -1.454824   -1.548373
      8          1           0        1.080110   -2.341629    0.427873
      9          1           0        1.526557    0.036156    1.384827
     10          1           0        2.312738    1.034007   -1.388982
     11          1           0        1.810500   -1.306155   -2.372497
     12          1           0        2.288934   -3.055423   -0.646616
     13          1           0        0.300565   -2.104213   -1.921955
     14          8           0        3.834718   -1.654750    1.106956
     15          6           0        4.259541   -1.252913   -0.214449
     16          8           0        3.302208    1.065301    1.080975
     17          1           0        3.789224    0.536485    1.738095
     18          8           0        0.921723    2.075392   -0.271626
     19          6           0        1.743014    3.236313   -0.314480
     20          1           0        2.515798    3.215221    0.458885
     21          1           0        1.077918    4.088942   -0.152537
     22          1           0        2.223732    3.343557   -1.299341
     23          8           0       -0.540827   -0.334441   -0.214592
     24         14           0       -1.961071    0.530867    0.077984
     25          6           0       -1.779554    1.507851    1.681425
     26          1           0       -2.683184    2.085689    1.911053
     27          1           0       -0.939705    2.203368    1.589694
     28          1           0       -1.578208    0.850733    2.535348
     29          6           0       -3.323267   -0.811098    0.250734
     30          6           0       -2.329031    1.702228   -1.359567
     31          1           0       -3.262533    2.250355   -1.183929
     32          1           0       -2.431032    1.178204   -2.317105
     33          1           0       -1.522399    2.435695   -1.458351
     34          6           0       -3.475925   -1.581575   -1.077506
     35          1           0       -2.535317   -2.059047   -1.376702
     36          1           0       -3.795954   -0.926683   -1.897271
     37          1           0       -4.232408   -2.374073   -0.979387
     38          6           0       -4.672549   -0.152246    0.609178
     39          1           0       -5.001318    0.558469   -0.159645
     40          1           0       -4.625898    0.385763    1.563712
     41          1           0       -5.459876   -0.914474    0.703264
     42          6           0       -2.936369   -1.809590    1.362452
     43          1           0       -3.699584   -2.596482    1.456321
     44          1           0       -2.851493   -1.321817    2.341174
     45          1           0       -1.979218   -2.298448    1.148505
     46          1           0        4.572478   -2.072780   -0.860927
     47          1           0        4.881456   -0.361063   -0.244829
 ---------------------------------------------------------------------

 SCF Done:  E(RmPW1PW91) =  -1140.62541575     A.U. after   13 cycles

      1  H    Isotropic =    27.4142   Anisotropy =     3.8811

      2  C    Isotropic =   122.0463   Anisotropy =    37.8239

      3  C    Isotropic =   168.1213   Anisotropy =    29.1350

      4  C    Isotropic =   122.7283   Anisotropy =    39.5283

      5  C    Isotropic =   133.5559   Anisotropy =    59.8625

      6  C    Isotropic =   111.0944   Anisotropy =    40.4376

      7  C    Isotropic =   163.2060   Anisotropy =    20.2065

      8  H    Isotropic =    29.1732   Anisotropy =     6.4614

      9  H    Isotropic =    27.1565   Anisotropy =     6.8642

     10  H    Isotropic =    28.5066   Anisotropy =     3.2699

     11  H    Isotropic =    30.0098   Anisotropy =     9.0780

     12  H    Isotropic =    30.4870   Anisotropy =    10.9154

     13  H    Isotropic =    29.7083   Anisotropy =     8.8730

     14  O    Isotropic =   315.5386   Anisotropy =   110.0436

     15  C    Isotropic =   146.3553   Anisotropy =    33.9596

     16  O    Isotropic =   312.1045   Anisotropy =    44.4367

     17  H    Isotropic =    29.6502   Anisotropy =    17.5022

     18  O    Isotropic =   296.0326   Anisotropy =    68.0904

     19  C    Isotropic =   136.8905   Anisotropy =    85.7497

     20  H    Isotropic =    27.2163   Anisotropy =     8.8799

     21  H    Isotropic =    27.8751   Anisotropy =    10.6187

     22  H    Isotropic =    28.3333   Anisotropy =    10.3196

     23  O    Isotropic =   287.0311   Anisotropy =    20.0627

     24  Si   Isotropic =   377.7871   Anisotropy =    32.0992

     25  C    Isotropic =   198.7493   Anisotropy =     8.7605

     26  H    Isotropic =    31.7335   Anisotropy =    10.9415

     27  H    Isotropic =    30.9086   Anisotropy =    10.0836

     28  H    Isotropic =    31.2864   Anisotropy =     8.2552

     29  C    Isotropic =   172.5858   Anisotropy =     7.2889

     30  C    Isotropic =   201.1214   Anisotropy =     4.8164

     31  H    Isotropic =    31.6990   Anisotropy =    10.6959

     32  H    Isotropic =    31.4458   Anisotropy =     8.7929

     33  H    Isotropic =    31.0509   Anisotropy =     9.6704

     34  C    Isotropic =   170.3235   Anisotropy =    37.5593

     35  H    Isotropic =    30.4121   Anisotropy =     7.8028

     36  H    Isotropic =    30.6403   Anisotropy =     8.3106

     37  H    Isotropic =    31.0505   Anisotropy =     9.8216

     38  C    Isotropic =   170.3576   Anisotropy =    38.9011

     39  H    Isotropic =    30.7241   Anisotropy =     9.0379

     40  H    Isotropic =    30.6980   Anisotropy =     8.8794

     41  H    Isotropic =    30.9266   Anisotropy =    10.2501

     42  C    Isotropic =   170.3798   Anisotropy =    37.5225

     43  H    Isotropic =    31.0454   Anisotropy =     9.7954

     44  H    Isotropic =    30.4889   Anisotropy =     8.3118

     45  H    Isotropic =    30.2165   Anisotropy =     8.1440

     46  H    Isotropic =    28.9847   Anisotropy =    10.8596

     47  H    Isotropic =    28.4199   Anisotropy =     8.0597

 The electronic state is 1-A.
 Alpha  occ. eigenvalues --  -66.30041 -19.27073 -19.25532 -19.25345 -19.23116
 Alpha  occ. eigenvalues --  -10.31670 -10.30903 -10.30558 -10.30511 -10.30194
 Alpha  occ. eigenvalues --  -10.28287 -10.25403 -10.25358 -10.24337 -10.23378
 Alpha  occ. eigenvalues --  -10.23185 -10.23067 -10.22029 -10.21563  -5.33396
 Alpha  occ. eigenvalues --   -3.67320  -3.67024  -3.66989  -1.11620  -1.07524
 Alpha  occ. eigenvalues --   -1.05522  -1.02926  -0.84905  -0.81918  -0.77632
 Alpha  occ. eigenvalues --   -0.75079  -0.71759  -0.70182  -0.70061  -0.69822
 Alpha  occ. eigenvalues --   -0.69272  -0.69086  -0.63349  -0.62529  -0.58694
 Alpha  occ. eigenvalues --   -0.56141  -0.55097  -0.52541  -0.52187  -0.51668
 Alpha  occ. eigenvalues --   -0.49004  -0.47955  -0.47201  -0.46296  -0.45377
 Alpha  occ. eigenvalues --   -0.44339  -0.44301  -0.43987  -0.43380  -0.42607
 Alpha  occ. eigenvalues --   -0.41676  -0.41001  -0.40480  -0.40181  -0.39769
 Alpha  occ. eigenvalues --   -0.39384  -0.39079  -0.38791  -0.38481  -0.37625
 Alpha  occ. eigenvalues --   -0.36991  -0.36522  -0.35833  -0.34085  -0.33528
 Alpha  occ. eigenvalues --   -0.33431  -0.32846  -0.31860  -0.31188  -0.30409
 Alpha  occ. eigenvalues --   -0.29368  -0.28366  -0.27201  -0.25952
 Alpha virt. eigenvalues --   -0.00060   0.00552   0.01289   0.01499   0.02316
 Alpha virt. eigenvalues --    0.02962   0.03274   0.03730   0.03991   0.04896
 Alpha virt. eigenvalues --    0.05092   0.05454   0.05729   0.06108   0.06373

 Mulliken atomic charges:
              1
     1  H    0.151124
     2  C    0.114663
     3  C   -0.178403
     4  C    0.332287
     5  C   -0.368021
     6  C   -0.340180
     7  C   -0.417642
     8  H    0.193524
     9  H    0.181695
    10  H    0.148741
    11  H    0.173804
    12  H    0.169941
    13  H    0.173390
    14  O   -0.384770
    15  C   -0.114725
    16  O   -0.563839
    17  H    0.399714
    18  O   -0.237405
    19  C   -0.162697
    20  H    0.177637
    21  H    0.161296
    22  H    0.143059
    23  O   -0.306987
    24  Si   0.708359
    25  C   -0.726123
    26  H    0.180079
    27  H    0.205242
    28  H    0.180709
    29  C   -0.008601
    30  C   -0.733146
    31  H    0.186159
    32  H    0.182835
    33  H    0.205817
    34  C   -0.585819
    35  H    0.171249
    36  H    0.163567
    37  H    0.161530
    38  C   -0.540812
    39  H    0.165478
    40  H    0.168454
    41  H    0.163791
    42  C   -0.554546
    43  H    0.160521
    44  H    0.164397
    45  H    0.177011
    46  H    0.173468
    47  H    0.184175
 Sum of Mulliken atomic charges =   0.00000

 Dipole moment (field-independent basis, Debye):
    X=              0.5098    Y=              0.2566    Z=             -2.9421  Tot=              2.9969
 Quadrupole moment (field-independent basis, Debye-Ang):
   XX=           -124.4895   YY=           -126.1787   ZZ=           -124.4836
   XY=             -0.0071   XZ=             -8.2230   YZ=              2.9643

 Normal termination of Gaussian 09 at Wed Dec  7 01:17:47 2022.
