 Gaussian 09, Revision C.01,
 Gaussian 09:  EM64L-G09RevC.01 23-Sep-2011

 -----------------------------------------------------
 # mPW1PW91/6-31+g** scrf=(PCM,solvent=chloroform) nmr
 -----------------------------------------------------

 99/9=1/99;
 -------
 comment
 -------
 Charge =  0 Multiplicity = 1

                         Standard orientation:
 ---------------------------------------------------------------------
 Center     Atomic      Atomic             Coordinates (Angstroms)
 Number     Number       Type             X           Y           Z
 ---------------------------------------------------------------------
      1          1           0       -0.126296    0.812729    1.947989
      2          6           0       -0.539694    0.177697    1.150503
      3          6           0       -1.868632   -1.941696    0.705129
      4          6           0       -2.283462    0.131108   -0.714479
      5          6           0       -2.868726   -1.142903   -0.116661
      6          6           0       -1.630312    0.963473    0.400978
      7          6           0       -1.180741   -1.073476    1.773100
      8          1           0       -1.107281   -2.347300    0.028119
      9          1           0       -1.504089   -0.155394   -1.436617
     10          1           0       -2.420459    1.229101    1.121319
     11          1           0       -1.910575   -0.757996    2.531361
     12          1           0       -2.377500   -2.795540    1.164793
     13          1           0       -0.405421   -1.649639    2.289530
     14          8           0       -3.706057   -1.915388   -0.981552
     15          6           0       -4.316557   -1.244076    0.133924
     16          8           0       -3.294126    0.890993   -1.353626
     17          1           0       -2.865710    1.734184   -1.577308
     18          8           0       -1.144806    2.162210   -0.209945
     19          6           0       -1.206986    3.310599    0.621179
     20          1           0       -2.241712    3.528635    0.924394
     21          1           0       -0.821530    4.148101    0.034100
     22          1           0       -0.592638    3.201501    1.525832
     23          8           0        0.496070   -0.237199    0.273877
     24         14           0        1.963007    0.491831   -0.120755
     25          6           0        1.818881    1.371780   -1.782654
     26          1           0        2.746819    1.892993   -2.047628
     27          1           0        1.009929    2.107955   -1.740654
     28          1           0        1.585761    0.670940   -2.592473
     29          6           0        3.218936   -0.951913   -0.214755
     30          6           0        2.458391    1.739167    1.215427
     31          1           0        3.473660    2.110116    1.029029
     32          1           0        2.450050    1.303662    2.221324
     33          1           0        1.795016    2.611597    1.220929
     34          6           0        3.369310   -1.615237    1.170718
     35          1           0        3.756510   -0.915064    1.921367
     36          1           0        4.073316   -2.458521    1.118704
     37          1           0        2.412931   -2.006592    1.536813
     38          6           0        4.597286   -0.427549   -0.673772
     39          1           0        5.006193    0.321357    0.016287
     40          1           0        4.555473    0.024457   -1.672299
     41          1           0        5.322463   -1.252864   -0.721312
     42          6           0        2.721561   -2.009450   -1.223656
     43          1           0        3.428941   -2.850031   -1.278351
     44          1           0        2.627342   -1.597868   -2.235962
     45          1           0        1.745129   -2.414380   -0.935450
     46          1           0       -4.676906   -1.898375    0.929490
     47          1           0       -4.965688   -0.413464   -0.132690
 ---------------------------------------------------------------------

 SCF Done:  E(RmPW1PW91) =  -1140.62565091     A.U. after   13 cycles

      1  H    Isotropic =    27.1949   Anisotropy =     3.6653

      2  C    Isotropic =   127.1335   Anisotropy =    52.7711

      3  C    Isotropic =   166.4109   Anisotropy =    31.8665

      4  C    Isotropic =   127.0660   Anisotropy =    39.1950

      5  C    Isotropic =   135.4871   Anisotropy =    60.4773

      6  C    Isotropic =   107.4140   Anisotropy =    40.5149

      7  C    Isotropic =   163.7857   Anisotropy =    20.0749

      8  H    Isotropic =    29.0391   Anisotropy =     6.4725

      9  H    Isotropic =    27.3877   Anisotropy =     6.2860

     10  H    Isotropic =    28.6942   Anisotropy =     4.2066

     11  H    Isotropic =    30.0674   Anisotropy =     9.2314

     12  H    Isotropic =    30.5665   Anisotropy =    10.5447

     13  H    Isotropic =    29.7244   Anisotropy =     8.7249

     14  O    Isotropic =   306.6942   Anisotropy =   113.7352

     15  C    Isotropic =   146.8587   Anisotropy =    35.5920

     16  O    Isotropic =   311.5329   Anisotropy =    31.2810

     17  H    Isotropic =    29.2647   Anisotropy =    17.9560

     18  O    Isotropic =   309.3953   Anisotropy =    65.4664

     19  C    Isotropic =   138.4832   Anisotropy =    82.3164

     20  H    Isotropic =    28.3954   Anisotropy =    10.6034

     21  H    Isotropic =    27.8508   Anisotropy =    10.2896

     22  H    Isotropic =    27.9887   Anisotropy =     8.5287

     23  O    Isotropic =   287.7772   Anisotropy =    20.7172

     24  Si   Isotropic =   378.1214   Anisotropy =    37.1527

     25  C    Isotropic =   198.5230   Anisotropy =     8.1564

     26  H    Isotropic =    31.7061   Anisotropy =    10.9192

     27  H    Isotropic =    30.9998   Anisotropy =    10.0986

     28  H    Isotropic =    31.2926   Anisotropy =     8.3172

     29  C    Isotropic =   173.0545   Anisotropy =     8.1430

     30  C    Isotropic =   201.4912   Anisotropy =     5.0825

     31  H    Isotropic =    31.5199   Anisotropy =    10.5853

     32  H    Isotropic =    31.4468   Anisotropy =     8.8490

     33  H    Isotropic =    31.3696   Anisotropy =     9.7394

     34  C    Isotropic =   170.7690   Anisotropy =    37.5400

     35  H    Isotropic =    30.6401   Anisotropy =     8.2906

     36  H    Isotropic =    31.0000   Anisotropy =     9.8240

     37  H    Isotropic =    30.3948   Anisotropy =     7.8735

     38  C    Isotropic =   170.3319   Anisotropy =    39.3921

     39  H    Isotropic =    30.7283   Anisotropy =     9.0635

     40  H    Isotropic =    30.7040   Anisotropy =     8.8487

     41  H    Isotropic =    30.9612   Anisotropy =    10.1484

     42  C    Isotropic =   170.5205   Anisotropy =    37.9590

     43  H    Isotropic =    31.0010   Anisotropy =     9.8324

     44  H    Isotropic =    30.4686   Anisotropy =     8.3081

     45  H    Isotropic =    30.1873   Anisotropy =     8.3129

     46  H    Isotropic =    29.0689   Anisotropy =    10.8345

     47  H    Isotropic =    28.3077   Anisotropy =     8.5265

 The electronic state is 1-A.
 Alpha  occ. eigenvalues --  -66.30354 -19.26619 -19.26020 -19.25174 -19.23394
 Alpha  occ. eigenvalues --  -10.31394 -10.31131 -10.30753 -10.30540 -10.29623
 Alpha  occ. eigenvalues --  -10.29558 -10.25394 -10.25216 -10.24559 -10.23530
 Alpha  occ. eigenvalues --  -10.23316 -10.23155 -10.22600 -10.21802  -5.33718
 Alpha  occ. eigenvalues --   -3.67643  -3.67350  -3.67306  -1.10998  -1.08524
 Alpha  occ. eigenvalues --   -1.05412  -1.03325  -0.84861  -0.82077  -0.77641
 Alpha  occ. eigenvalues --   -0.75192  -0.72121  -0.70988  -0.70345  -0.70037
 Alpha  occ. eigenvalues --   -0.69369  -0.68488  -0.64204  -0.62126  -0.58472
 Alpha  occ. eigenvalues --   -0.56268  -0.54692  -0.52960  -0.52671  -0.50729
 Alpha  occ. eigenvalues --   -0.49427  -0.48290  -0.47504  -0.46848  -0.45491
 Alpha  occ. eigenvalues --   -0.45141  -0.44489  -0.44031  -0.43698  -0.43068
 Alpha  occ. eigenvalues --   -0.41951  -0.41085  -0.40723  -0.40271  -0.39827
 Alpha  occ. eigenvalues --   -0.39329  -0.39043  -0.38698  -0.38469  -0.37948
 Alpha  occ. eigenvalues --   -0.37134  -0.36629  -0.35583  -0.34652  -0.34078
 Alpha  occ. eigenvalues --   -0.33553  -0.32977  -0.31653  -0.31392  -0.29939
 Alpha  occ. eigenvalues --   -0.29734  -0.28431  -0.27688  -0.26083
 Alpha virt. eigenvalues --   -0.00283   0.00650   0.01156   0.01509   0.02660
 Alpha virt. eigenvalues --    0.02872   0.03266   0.03467   0.03956   0.04772
 Alpha virt. eigenvalues --    0.05110   0.05325   0.05771   0.06054   0.06523

 Mulliken atomic charges:
              1
     1  H    0.145640
     2  C    0.174637
     3  C   -0.154504
     4  C    0.001866
     5  C   -0.366657
     6  C   -0.141996
     7  C   -0.467213
     8  H    0.193935
     9  H    0.178808
    10  H    0.152930
    11  H    0.173816
    12  H    0.168277
    13  H    0.172731
    14  O   -0.327181
    15  C   -0.088075
    16  O   -0.521452
    17  H    0.392942
    18  O   -0.287985
    19  C   -0.112148
    20  H    0.160891
    21  H    0.171012
    22  H    0.154182
    23  O   -0.275134
    24  Si   0.595769
    25  C   -0.688782
    26  H    0.181927
    27  H    0.203851
    28  H    0.183645
    29  C   -0.003935
    30  C   -0.711314
    31  H    0.189752
    32  H    0.187006
    33  H    0.186403
    34  C   -0.588067
    35  H    0.164304
    36  H    0.162729
    37  H    0.172584
    38  C   -0.538549
    39  H    0.164314
    40  H    0.169819
    41  H    0.165139
    42  C   -0.549116
    43  H    0.161639
    44  H    0.165193
    45  H    0.178181
    46  H    0.165665
    47  H    0.182523
 Sum of Mulliken atomic charges =   0.00000

 Dipole moment (field-independent basis, Debye):
    X=              2.1016    Y=              3.3766    Z=              4.6035  Tot=              6.0837
 Quadrupole moment (field-independent basis, Debye-Ang):
   XX=           -134.2564   YY=           -121.6469   ZZ=           -126.6512
   XY=             -5.8905   XZ=            -14.0995   YZ=             -2.9414

 Normal termination of Gaussian 09 at Tue Dec  6 23:53:48 2022.
