 Gaussian 09, Revision C.01,
 Gaussian 09:  EM64L-G09RevC.01 23-Sep-2011

 -----------------------------------------------------
 # mPW1PW91/6-31+g** scrf=(PCM,solvent=chloroform) nmr
 -----------------------------------------------------

 99/9=1/99;
 -------
 comment
 -------
 Charge =  0 Multiplicity = 1

                         Standard orientation:
 ---------------------------------------------------------------------
 Center     Atomic      Atomic             Coordinates (Angstroms)
 Number     Number       Type             X           Y           Z
 ---------------------------------------------------------------------
      1          1           0       -0.242437   -0.934285    0.652628
      2          6           0       -0.477493   -0.309894   -0.220426
      3          6           0       -2.612582   -1.631372   -0.480754
      4          6           0       -2.533202    0.434573    1.042790
      5          6           0       -3.377901   -0.494684    0.174042
      6          6           0       -1.265044    0.907228    0.306845
      7          6           0       -1.345719   -1.119894   -1.189709
      8          1           0       -3.272834   -2.146955   -1.186199
      9          1           0       -3.130772    1.321077    1.296095
     10          1           0       -0.638337    1.461123    1.022760
     11          1           0       -0.766895   -1.962819   -1.583240
     12          1           0       -2.330699   -2.354371    0.296781
     13          1           0       -1.617834   -0.477058   -2.033381
     14          8           0       -4.355725    0.164218   -0.647752
     15          6           0       -4.819952   -0.618978    0.456036
     16          8           0       -2.081898   -0.246692    2.217633
     17          1           0       -2.866660   -0.564845    2.690752
     18          8           0       -1.714980    1.767356   -0.724899
     19          6           0       -0.805628    2.775252   -1.136544
     20          1           0       -0.429075    3.346754   -0.273246
     21          1           0       -1.370312    3.451040   -1.785413
     22          1           0        0.046321    2.362826   -1.685670
     23          8           0        0.723046    0.127320   -0.855870
     24         14           0        2.268392   -0.510197   -0.658272
     25          6           0        2.185001   -2.398120   -0.539555
     26          1           0        3.185362   -2.831567   -0.421617
     27          1           0        1.751246   -2.821231   -1.453328
     28          1           0        1.578217   -2.742107    0.305983
     29          6           0        3.107228    0.228442    0.906007
     30          6           0        3.182568   -0.004730   -2.226934
     31          1           0        4.226409   -0.339597   -2.221245
     32          1           0        3.179246    1.082689   -2.360974
     33          1           0        2.695017   -0.445381   -3.104172
     34          6           0        3.117399    1.769303    0.814121
     35          1           0        3.692018    2.124094   -0.050291
     36          1           0        3.577694    2.205204    1.712941
     37          1           0        2.103553    2.176783    0.729430
     38          6           0        4.564333   -0.275902    1.006940
     39          1           0        5.164593    0.018323    0.137358
     40          1           0        4.619698   -1.367760    1.098759
     41          1           0        5.053052    0.147894    1.896433
     42          6           0        2.348990   -0.191927    2.184152
     43          1           0        2.838857    0.229858    3.074135
     44          1           0        2.329539   -1.281291    2.311753
     45          1           0        1.311401    0.162319    2.188749
     46          1           0       -5.341209   -1.540927    0.194366
     47          1           0       -5.274182   -0.050438    1.270691
 ---------------------------------------------------------------------

 SCF Done:  E(RmPW1PW91) =  -1140.61991042     A.U. after   13 cycles

      1  H    Isotropic =    27.1353   Anisotropy =     8.7169

      2  C    Isotropic =   121.5292   Anisotropy =    55.2739

      3  C    Isotropic =   165.8945   Anisotropy =    22.4634

      4  C    Isotropic =   116.7607   Anisotropy =    31.2730

      5  C    Isotropic =   137.7300   Anisotropy =    59.1233

      6  C    Isotropic =   113.4749   Anisotropy =    47.8971

      7  C    Isotropic =   166.2876   Anisotropy =    30.8782

      8  H    Isotropic =    30.5109   Anisotropy =    10.4931

      9  H    Isotropic =    28.2388   Anisotropy =     4.9286

     10  H    Isotropic =    27.8326   Anisotropy =     3.0047

     11  H    Isotropic =    30.0960   Anisotropy =     8.3569

     12  H    Isotropic =    29.2407   Anisotropy =     7.0590

     13  H    Isotropic =    29.1144   Anisotropy =     4.1346

     14  O    Isotropic =   292.9508   Anisotropy =   133.8341

     15  C    Isotropic =   147.7058   Anisotropy =    43.9429

     16  O    Isotropic =   289.4231   Anisotropy =    71.0244

     17  H    Isotropic =    30.5305   Anisotropy =    18.8776

     18  O    Isotropic =   313.2943   Anisotropy =    44.3942

     19  C    Isotropic =   135.5684   Anisotropy =    85.1212

     20  H    Isotropic =    28.2162   Anisotropy =     8.4227

     21  H    Isotropic =    27.8767   Anisotropy =    10.8360

     22  H    Isotropic =    27.1902   Anisotropy =     6.9159

     23  O    Isotropic =   277.8728   Anisotropy =    29.5897

     24  Si   Isotropic =   380.3688   Anisotropy =    29.9535

     25  C    Isotropic =   201.0495   Anisotropy =     7.9276

     26  H    Isotropic =    31.5821   Anisotropy =    10.7590

     27  H    Isotropic =    31.5638   Anisotropy =     9.7676

     28  H    Isotropic =    31.0501   Anisotropy =     7.4937

     29  C    Isotropic =   171.7866   Anisotropy =     7.8202

     30  C    Isotropic =   199.0790   Anisotropy =     7.8911

     31  H    Isotropic =    31.6171   Anisotropy =    10.7352

     32  H    Isotropic =    31.2699   Anisotropy =     8.6554

     33  H    Isotropic =    31.4958   Anisotropy =     9.9314

     34  C    Isotropic =   170.4884   Anisotropy =    36.9602

     35  H    Isotropic =    30.4857   Anisotropy =     8.6300

     36  H    Isotropic =    30.9644   Anisotropy =     9.2670

     37  H    Isotropic =    30.1090   Anisotropy =     8.7488

     38  C    Isotropic =   169.6024   Anisotropy =    40.5193

     39  H    Isotropic =    30.7499   Anisotropy =     9.2487

     40  H    Isotropic =    30.7072   Anisotropy =     8.9275

     41  H    Isotropic =    30.9548   Anisotropy =    10.0125

     42  C    Isotropic =   169.8919   Anisotropy =    37.4406

     43  H    Isotropic =    30.9139   Anisotropy =     9.1364

     44  H    Isotropic =    30.4331   Anisotropy =     7.4785

     45  H    Isotropic =    30.2621   Anisotropy =     9.9619

     46  H    Isotropic =    29.2222   Anisotropy =    11.1670

     47  H    Isotropic =    29.1790   Anisotropy =    10.7707

 The electronic state is 1-A.
 Alpha  occ. eigenvalues --  -66.30345 -19.26526 -19.26343 -19.25003 -19.23287
 Alpha  occ. eigenvalues --  -10.31597 -10.31061 -10.30317 -10.30221 -10.30198
 Alpha  occ. eigenvalues --  -10.28042 -10.25370 -10.24750 -10.24333 -10.23625
 Alpha  occ. eigenvalues --  -10.23504 -10.23360 -10.22500 -10.22253  -5.33746
 Alpha  occ. eigenvalues --   -3.67654  -3.67389  -3.67334  -1.11384  -1.07405
 Alpha  occ. eigenvalues --   -1.06259  -1.02828  -0.84275  -0.82227  -0.77822
 Alpha  occ. eigenvalues --   -0.74742  -0.72185  -0.70560  -0.70201  -0.69641
 Alpha  occ. eigenvalues --   -0.69463  -0.68669  -0.64701  -0.62231  -0.57410
 Alpha  occ. eigenvalues --   -0.57161  -0.54006  -0.53610  -0.52751  -0.50290
 Alpha  occ. eigenvalues --   -0.48501  -0.48006  -0.47676  -0.46363  -0.45051
 Alpha  occ. eigenvalues --   -0.44665  -0.44386  -0.43720  -0.43143  -0.43028
 Alpha  occ. eigenvalues --   -0.41810  -0.41292  -0.40851  -0.40152  -0.40130
 Alpha  occ. eigenvalues --   -0.39895  -0.39161  -0.38879  -0.38591  -0.37925
 Alpha  occ. eigenvalues --   -0.37257  -0.35842  -0.35702  -0.35013  -0.33852
 Alpha  occ. eigenvalues --   -0.33450  -0.32548  -0.31689  -0.31087  -0.30746
 Alpha  occ. eigenvalues --   -0.30069  -0.28272  -0.26746  -0.25798
 Alpha virt. eigenvalues --   -0.00239   0.00518   0.01220   0.01693   0.02140
 Alpha virt. eigenvalues --    0.02986   0.03150   0.03847   0.04146   0.04740
 Alpha virt. eigenvalues --    0.04908   0.05219   0.05369   0.06137   0.06471

 Mulliken atomic charges:
              1
     1  H    0.157636
     2  C   -0.373468
     3  C   -0.481279
     4  C   -0.031060
     5  C   -0.056168
     6  C   -0.146847
     7  C   -0.188265
     8  H    0.173635
     9  H    0.161294
    10  H    0.140151
    11  H    0.164345
    12  H    0.184002
    13  H    0.192832
    14  O   -0.315728
    15  C    0.010380
    16  O   -0.506667
    17  H    0.388382
    18  O   -0.213316
    19  C   -0.105706
    20  H    0.138086
    21  H    0.160351
    22  H    0.172240
    23  O   -0.251672
    24  Si   0.770067
    25  C   -0.709871
    26  H    0.189439
    27  H    0.187338
    28  H    0.186198
    29  C   -0.017429
    30  C   -0.691088
    31  H    0.185782
    32  H    0.187140
    33  H    0.188265
    34  C   -0.575680
    35  H    0.165741
    36  H    0.162826
    37  H    0.172733
    38  C   -0.518654
    39  H    0.167947
    40  H    0.166622
    41  H    0.166139
    42  C   -0.598075
    43  H    0.164633
    44  H    0.165666
    45  H    0.169561
    46  H    0.172562
    47  H    0.168981
 Sum of Mulliken atomic charges =   0.00000

 Dipole moment (field-independent basis, Debye):
    X=              0.4049    Y=             -2.2314    Z=              2.3374  Tot=              3.2567
 Quadrupole moment (field-independent basis, Debye-Ang):
   XX=           -120.0082   YY=           -120.7831   ZZ=           -126.8807
   XY=              8.3132   XZ=            -13.7231   YZ=              0.8551

 Normal termination of Gaussian 09 at Tue Dec  6 21:33:08 2022.
