 Gaussian 09, Revision C.01,
 Gaussian 09:  EM64L-G09RevC.01 23-Sep-2011

 -----------------------------------------------------
 # mPW1PW91/6-31+g** scrf=(PCM,solvent=chloroform) nmr
 -----------------------------------------------------

 99/9=1/99;
 -------
 comment
 -------
 Charge =  0 Multiplicity = 1

                         Standard orientation:
 ---------------------------------------------------------------------
 Center     Atomic      Atomic             Coordinates (Angstroms)
 Number     Number       Type             X           Y           Z
 ---------------------------------------------------------------------
      1          1           0       -0.515160   -1.441506    0.561956
      2          6           0       -0.523963   -0.572336   -0.111657
      3          6           0       -2.677639   -1.428789   -1.132657
      4          6           0       -2.731357    0.078807    0.942486
      5          6           0       -3.447633   -0.410350   -0.311801
      6          6           0       -1.294838    0.545226    0.617227
      7          6           0       -1.239306   -0.958344   -1.411443
      8          1           0       -3.213911   -1.614720   -2.069473
      9          1           0       -3.303257    0.918991    1.362056
     10          1           0       -0.785178    0.776482    1.565894
     11          1           0       -0.670715   -1.749816   -1.912319
     12          1           0       -2.654879   -2.373957   -0.573250
     13          1           0       -1.246718   -0.085410   -2.071920
     14          8           0       -4.121889    0.627216   -1.046802
     15          6           0       -4.919418   -0.346512   -0.363865
     16          8           0       -2.600204   -0.970701    1.906187
     17          1           0       -3.492897   -1.277347    2.130265
     18          8           0       -1.301083    1.679632   -0.228113
     19          6           0       -1.607350    2.906399    0.402524
     20          1           0       -2.662334    2.975365    0.703896
     21          1           0       -1.406125    3.692539   -0.329909
     22          1           0       -0.973882    3.073013    1.288070
     23          8           0        0.797415   -0.147460   -0.407347
     24         14           0        2.205036   -0.607874    0.382079
     25          6           0        2.070493   -0.259902    2.238369
     26          1           0        2.965741   -0.598704    2.774079
     27          1           0        1.212789   -0.785298    2.676407
     28          1           0        1.942482    0.808828    2.444331
     29          6           0        3.559788    0.454201   -0.446570
     30          6           0        2.500608   -2.462519    0.143708
     31          1           0        2.569078   -2.728920   -0.916912
     32          1           0        1.683645   -3.050751    0.580083
     33          1           0        3.427760   -2.787385    0.631723
     34          6           0        3.630341    0.124928   -1.953641
     35          1           0        3.923656   -0.917098   -2.132741
     36          1           0        4.377403    0.762373   -2.449151
     37          1           0        2.667153    0.293247   -2.447522
     38          6           0        4.933873    0.176732    0.199358
     39          1           0        5.236114   -0.872824    0.092765
     40          1           0        4.943206    0.421398    1.268977
     41          1           0        5.711949    0.788391   -0.280132
     42          6           0        3.208528    1.948736   -0.279439
     43          1           0        3.956876    2.576180   -0.785743
     44          1           0        3.193766    2.249584    0.775738
     45          1           0        2.227318    2.178973   -0.708226
     46          1           0       -5.464766   -1.040205   -1.004868
     47          1           0       -5.486300    0.031651    0.489826
 ---------------------------------------------------------------------

 SCF Done:  E(RmPW1PW91) =  -1140.62111102     A.U. after   13 cycles

      1  H    Isotropic =    27.3213   Anisotropy =     8.0402

      2  C    Isotropic =   126.8598   Anisotropy =    53.4696

      3  C    Isotropic =   166.9265   Anisotropy =    22.2066

      4  C    Isotropic =   122.1867   Anisotropy =    41.9565

      5  C    Isotropic =   137.2834   Anisotropy =    59.8501

      6  C    Isotropic =   113.3406   Anisotropy =    46.0522

      7  C    Isotropic =   167.2392   Anisotropy =    29.0950

      8  H    Isotropic =    30.5166   Anisotropy =    10.7016

      9  H    Isotropic =    27.9620   Anisotropy =     4.2973

     10  H    Isotropic =    28.1332   Anisotropy =     4.2927

     11  H    Isotropic =    30.1426   Anisotropy =     8.2425

     12  H    Isotropic =    29.1731   Anisotropy =     7.7061

     13  H    Isotropic =    29.2558   Anisotropy =     4.0804

     14  O    Isotropic =   296.6828   Anisotropy =   132.2639

     15  C    Isotropic =   147.4306   Anisotropy =    44.2448

     16  O    Isotropic =   293.3924   Anisotropy =    64.2357

     17  H    Isotropic =    30.5044   Anisotropy =    18.8970

     18  O    Isotropic =   316.7618   Anisotropy =    44.1906

     19  C    Isotropic =   139.2860   Anisotropy =    83.3034

     20  H    Isotropic =    28.0385   Anisotropy =     9.8305

     21  H    Isotropic =    27.8206   Anisotropy =    10.6545

     22  H    Isotropic =    28.5469   Anisotropy =     9.2053

     23  O    Isotropic =   284.6402   Anisotropy =    48.6735

     24  Si   Isotropic =   381.3787   Anisotropy =    40.6820

     25  C    Isotropic =   199.6387   Anisotropy =     7.7806

     26  H    Isotropic =    31.6961   Anisotropy =    10.9480

     27  H    Isotropic =    31.2634   Anisotropy =     8.5206

     28  H    Isotropic =    31.4292   Anisotropy =     8.1868

     29  C    Isotropic =   174.5378   Anisotropy =     7.8760

     30  C    Isotropic =   200.9010   Anisotropy =     9.8838

     31  H    Isotropic =    31.5435   Anisotropy =     9.2579

     32  H    Isotropic =    31.2978   Anisotropy =     8.7844

     33  H    Isotropic =    31.6789   Anisotropy =    10.8487

     34  C    Isotropic =   170.3291   Anisotropy =    38.2084

     35  H    Isotropic =    30.5847   Anisotropy =     8.8080

     36  H    Isotropic =    31.0449   Anisotropy =     9.7560

     37  H    Isotropic =    30.1790   Anisotropy =     7.6822

     38  C    Isotropic =   170.6974   Anisotropy =    39.3293

     39  H    Isotropic =    30.6861   Anisotropy =     9.4171

     40  H    Isotropic =    30.7185   Anisotropy =     8.9802

     41  H    Isotropic =    30.8563   Anisotropy =    10.1992

     42  C    Isotropic =   170.5295   Anisotropy =    37.9896

     43  H    Isotropic =    31.0298   Anisotropy =     9.5490

     44  H    Isotropic =    30.5585   Anisotropy =     8.0464

     45  H    Isotropic =    30.0401   Anisotropy =     8.5973

     46  H    Isotropic =    29.1501   Anisotropy =    11.3778

     47  H    Isotropic =    29.1079   Anisotropy =    10.7707

 The electronic state is 1-A.
 Alpha  occ. eigenvalues --  -66.30034 -19.26625 -19.26450 -19.25128 -19.22919
 Alpha  occ. eigenvalues --  -10.31617 -10.31096 -10.30384 -10.30247 -10.30202
 Alpha  occ. eigenvalues --  -10.28596 -10.25328 -10.24509 -10.24210 -10.23465
 Alpha  occ. eigenvalues --  -10.23047 -10.22976 -10.22235 -10.22218  -5.33454
 Alpha  occ. eigenvalues --   -3.67359  -3.67084  -3.67060  -1.11401  -1.07609
 Alpha  occ. eigenvalues --   -1.06455  -1.02803  -0.84186  -0.81951  -0.77537
 Alpha  occ. eigenvalues --   -0.74955  -0.72027  -0.70259  -0.70209  -0.69968
 Alpha  occ. eigenvalues --   -0.69280  -0.68724  -0.64455  -0.62365  -0.57554
 Alpha  occ. eigenvalues --   -0.56956  -0.54103  -0.53427  -0.52664  -0.50275
 Alpha  occ. eigenvalues --   -0.48478  -0.48134  -0.47591  -0.46281  -0.45533
 Alpha  occ. eigenvalues --   -0.44320  -0.44183  -0.43559  -0.43222  -0.42638
 Alpha  occ. eigenvalues --   -0.41731  -0.41396  -0.40990  -0.40122  -0.39930
 Alpha  occ. eigenvalues --   -0.39738  -0.39257  -0.38822  -0.38571  -0.38154
 Alpha  occ. eigenvalues --   -0.36967  -0.36019  -0.35634  -0.34239  -0.33557
 Alpha  occ. eigenvalues --   -0.33344  -0.32311  -0.31674  -0.31432  -0.30549
 Alpha  occ. eigenvalues --   -0.28660  -0.27628  -0.27128  -0.26840
 Alpha virt. eigenvalues --   -0.00297   0.00482   0.01138   0.01599   0.02292
 Alpha virt. eigenvalues --    0.02926   0.03188   0.03971   0.04216   0.04610
 Alpha virt. eigenvalues --    0.04954   0.05181   0.05678   0.05834   0.06301

 Mulliken atomic charges:
              1
     1  H    0.157247
     2  C   -0.389164
     3  C   -0.568525
     4  C    0.260981
     5  C   -0.189811
     6  C   -0.301005
     7  C   -0.144885
     8  H    0.173907
     9  H    0.147374
    10  H    0.145346
    11  H    0.169308
    12  H    0.182522
    13  H    0.195793
    14  O   -0.292458
    15  C    0.071638
    16  O   -0.512477
    17  H    0.387411
    18  O   -0.201263
    19  C   -0.167088
    20  H    0.150788
    21  H    0.167441
    22  H    0.147245
    23  O   -0.288947
    24  Si   0.810604
    25  C   -0.690572
    26  H    0.187133
    27  H    0.187526
    28  H    0.185651
    29  C    0.008161
    30  C   -0.688207
    31  H    0.186207
    32  H    0.182689
    33  H    0.186239
    34  C   -0.585633
    35  H    0.163529
    36  H    0.161216
    37  H    0.182931
    38  C   -0.548635
    39  H    0.166989
    40  H    0.167899
    41  H    0.165267
    42  C   -0.582058
    43  H    0.160692
    44  H    0.160939
    45  H    0.187915
    46  H    0.173989
    47  H    0.168153
 Sum of Mulliken atomic charges =   0.00000

 Dipole moment (field-independent basis, Debye):
    X=             -2.2328    Y=             -2.0053    Z=              2.7655  Tot=              4.0810
 Quadrupole moment (field-independent basis, Debye-Ang):
   XX=           -109.9032   YY=           -121.6325   ZZ=           -128.7048
   XY=              6.7297   XZ=             -7.1774   YZ=              5.4841

 Normal termination of Gaussian 09 at Tue Dec  6 21:52:18 2022.
