 Gaussian 09, Revision C.01,

 ------------------------------------------------
 # mPW1PW91/6-31+G** scrf=(PCM,solvent=water) nmr
 ------------------------------------------------

 99/9=1/99;
 -------
 comment
 -------
 Charge =  0 Multiplicity = 1

 SCF Done:  E(RmPW1PW91) =  -1002.31606414     A.U. after   14 cycles

      1  C    Isotropic =   122.9435   Anisotropy =    50.7692

      2  C    Isotropic =   159.0675   Anisotropy =    24.5216

      3  H    Isotropic =    29.4487   Anisotropy =     6.6874

      4  H    Isotropic =    30.2563   Anisotropy =     8.9142

      5  C    Isotropic =   167.5923   Anisotropy =    21.6845

      6  H    Isotropic =    30.1267   Anisotropy =    10.0891

      7  C    Isotropic =   151.3369   Anisotropy =    29.6640

      8  H    Isotropic =    28.3053   Anisotropy =     4.2024

      9  C    Isotropic =   155.5918   Anisotropy =    13.4503

     10  H    Isotropic =    27.4404   Anisotropy =     6.9459

     11  C    Isotropic =   114.8973   Anisotropy =    35.6167

     12  H    Isotropic =    27.5830   Anisotropy =     3.5589

     13  C    Isotropic =    89.6669   Anisotropy =   119.3646

     14  C    Isotropic =    51.0593   Anisotropy =   188.4560

     15  C    Isotropic =    40.7969   Anisotropy =   128.4869

     16  C    Isotropic =    44.0766   Anisotropy =   123.3399

     17  C    Isotropic =    93.4592   Anisotropy =    99.1300

     18  C    Isotropic =    88.0966   Anisotropy =   108.7130

     19  H    Isotropic =    25.2876   Anisotropy =     6.8775

     20  H    Isotropic =    24.8425   Anisotropy =     7.7997

     21  O    Isotropic =   227.6752   Anisotropy =    43.4854

     22  H    Isotropic =    26.5696   Anisotropy =    15.3584

     23  O    Isotropic =   221.5830   Anisotropy =    77.0396

     24  H    Isotropic =    21.6788   Anisotropy =    28.5573

     25  O    Isotropic =   289.0661   Anisotropy =    44.2511

     26  H    Isotropic =    28.5707   Anisotropy =    19.3330

     27  C    Isotropic =   167.0674   Anisotropy =    46.4077

     28  H    Isotropic =    30.6408   Anisotropy =     9.2156

     29  H    Isotropic =    30.4722   Anisotropy =     9.3951

     30  H    Isotropic =    30.1726   Anisotropy =     8.8886

     31  O    Isotropic =   262.0675   Anisotropy =    95.6608

     32  H    Isotropic =    30.6964   Anisotropy =    17.6066

     33  H    Isotropic =    29.3731   Anisotropy =     6.3186

     34  C    Isotropic =    43.1479   Anisotropy =   181.0658

     35  C    Isotropic =    87.1944   Anisotropy =    99.1536

     36  H    Isotropic =    26.7607   Anisotropy =     6.6575

     37  H    Isotropic =    26.5507   Anisotropy =     7.4556

     38  C    Isotropic =   177.8378   Anisotropy =    27.9747

     39  H    Isotropic =    29.7715   Anisotropy =     8.3271

     40  H    Isotropic =    30.0639   Anisotropy =     8.7631

     41  H    Isotropic =    29.8192   Anisotropy =     6.1794

     42  C    Isotropic =   164.1196   Anisotropy =    30.4477

     43  H    Isotropic =    29.3071   Anisotropy =     7.7281

     44  H    Isotropic =    29.2247   Anisotropy =     7.3939

     45  C    Isotropic =   176.5846   Anisotropy =    31.8429

     46  H    Isotropic =    30.2795   Anisotropy =    12.1068

     47  H    Isotropic =    30.6313   Anisotropy =     7.3581

     48  H    Isotropic =    30.6585   Anisotropy =     7.1078

 Normal termination of Gaussian 09 at Fri Dec 23 14:18:38 2022.
 Gaussian 09:  EM64L-G09RevC.01 23-Sep-2011

 ----------------------------------------------------------------------
 # B3LYP/6-31+G** geom=allcheck test scrf=(pcm,solvent=water,smd,dovacu
 um)
 ----------------------------------------------------------------------

 Structure from the checkpoint file:  01_RRSS_THC_001_optB_NMR.chk
 -------
 comment
 -------
 Charge =  0 Multiplicity = 1

                         Standard orientation:
 ---------------------------------------------------------------------
 Center     Atomic      Atomic             Coordinates (Angstroms)
 Number     Number       Type             X           Y           Z
 ---------------------------------------------------------------------
      1          6           0       -3.232291   -0.889087    0.299296
      2          6           0       -3.656618    0.286143   -0.598617
      3          1           0       -3.619858   -0.009019   -1.654706
      4          1           0       -4.693959    0.569590   -0.380250
      5          6           0       -2.776087    1.519833   -0.391535
      6          1           0       -3.098292    2.306716   -1.085240
      7          6           0       -1.278683    1.213120   -0.605930
      8          1           0       -1.187378    0.901438   -1.654623
      9          6           0       -0.834263    0.023185    0.301166
     10          1           0       -1.034605    0.348171    1.329938
     11          6           0       -1.731719   -1.227327    0.079603
     12          1           0       -1.418496   -2.006905    0.786974
     13          6           0        0.656592   -0.325926    0.208349
     14          6           0        3.461677   -0.826702    0.110209
     15          6           0        1.309662   -0.638281   -0.995059
     16          6           0        1.452685   -0.309359    1.367800
     17          6           0        2.830974   -0.550672    1.326307
     18          6           0        2.686973   -0.864910   -1.051240
     19          1           0        3.423234   -0.519919    2.236400
     20          1           0        3.145701   -1.082331   -2.012969
     21          8           0        0.866513   -0.051216    2.578838
     22          1           0        1.553625   -0.031913    3.263885
     23          8           0        0.653107   -0.763717   -2.188650
     24          1           0       -0.262675   -1.049319   -1.980235
     25          8           0       -1.545524   -1.743659   -1.251843
     26          1           0       -1.784771   -2.689591   -1.213790
     27          6           0       -4.127673   -2.102994    0.024125
     28          1           0       -5.172002   -1.880894    0.272704
     29          1           0       -3.833556   -2.950041    0.654210
     30          1           0       -4.088505   -2.418121   -1.023224
     31          8           0       -3.428513   -0.526213    1.670970
     32          1           0       -4.354608   -0.249326    1.782656
     33          1           0       -2.948880    1.906168    0.620387
     34          6           0       -0.442717    2.483307   -0.426375
     35          6           0        0.303666    2.964089   -1.436365
     36          1           0        0.911057    3.856418   -1.323796
     37          1           0        0.345391    2.463252   -2.399599
     38          6           0       -0.459562    3.177199    0.909180
     39          1           0       -1.455545    3.572040    1.129669
     40          1           0        0.236729    4.022750    0.936858
     41          1           0       -0.167832    2.495218    1.711939
     42          6           0        4.948679   -1.056434    0.046100
     43          1           0        5.288191   -1.537229    0.971632
     44          1           0        5.179639   -1.760194   -0.762885
     45          6           0        5.711879    0.241640   -0.168565
     46          1           0        6.787878    0.045391   -0.211038
     47          1           0        5.528031    0.950091    0.646301
     48          1           0        5.417769    0.725043   -1.106401
 ---------------------------------------------------------------------

 SCF Done:  E(RB3LYP) =  -1002.55757514     A.U. after   14 cycles

 The electronic state is 1-A.
 Alpha  occ. eigenvalues --  -19.18677 -19.17968 -19.16688 -19.15963 -10.25384
 Alpha  occ. eigenvalues --  -10.24828 -10.24657 -10.24430 -10.19917 -10.19672
 Alpha  occ. eigenvalues --  -10.19650 -10.19302 -10.18945 -10.18073 -10.17859
 Alpha  occ. eigenvalues --  -10.17472 -10.17449 -10.17406 -10.17206 -10.17071
 Alpha  occ. eigenvalues --  -10.16955 -10.16922  -1.06485  -1.05882  -1.04047
 Alpha  occ. eigenvalues --   -1.02805  -0.85557  -0.83489  -0.79150  -0.78788
 Alpha  occ. eigenvalues --   -0.75468  -0.74135  -0.73144  -0.71133  -0.68256
 Alpha  occ. eigenvalues --   -0.67438  -0.64386  -0.62061  -0.60732  -0.59828
 Alpha  occ. eigenvalues --   -0.58716  -0.57191  -0.54211  -0.52916  -0.51255
 Alpha  occ. eigenvalues --   -0.50255  -0.49141  -0.48375  -0.47490  -0.46961
 Alpha  occ. eigenvalues --   -0.45349  -0.44362  -0.44063  -0.43380  -0.42954
 Alpha  occ. eigenvalues --   -0.42385  -0.41587  -0.40983  -0.40329  -0.39995
 Alpha  occ. eigenvalues --   -0.39586  -0.39320  -0.38599  -0.37801  -0.37567
 Alpha  occ. eigenvalues --   -0.37075  -0.36441  -0.36137  -0.35772  -0.35291
 Alpha  occ. eigenvalues --   -0.34395  -0.33853  -0.33797  -0.33061  -0.32463
 Alpha  occ. eigenvalues --   -0.31499  -0.30907  -0.29953  -0.28398  -0.27504
 Alpha  occ. eigenvalues --   -0.24588  -0.22768  -0.21841
 Alpha virt. eigenvalues --   -0.00574  -0.00016   0.00307   0.00634   0.01372
 Alpha virt. eigenvalues --    0.01889   0.02114   0.02582   0.03330   0.03729
 Alpha virt. eigenvalues --    0.04050   0.04411   0.04502   0.05135   0.05391

 Mulliken atomic charges:
              1
     1  C    0.280291
     2  C   -0.306302
     3  H    0.162246
     4  H    0.155983
     5  C   -0.583661
     6  H    0.150187
     7  C    0.041208
     8  H    0.140784
     9  C   -0.123941
    10  H    0.173073
    11  C   -0.313479
    12  H    0.157657
    13  C    0.367042
    14  C   -0.064575
    15  C   -1.350611
    16  C    0.505774
    17  C   -0.112322
    18  C    0.402288
    19  H    0.148068
    20  H    0.146581
    21  O   -0.600988
    22  H    0.448585
    23  O   -0.622307
    24  H    0.474649
    25  O   -0.662655
    26  H    0.445144
    27  C   -0.361123
    28  H    0.164974
    29  H    0.163156
    30  H    0.170058
    31  O   -0.617052
    32  H    0.412743
    33  H    0.155228
    34  C    0.653522
    35  C   -0.529481
    36  H    0.145036
    37  H    0.140876
    38  C   -0.640309
    39  H    0.172385
    40  H    0.156738
    41  H    0.171204
    42  C    0.018793
    43  H    0.151015
    44  H    0.151577
    45  C   -0.605994
    46  H    0.152208
    47  H    0.157875
    48  H    0.157853
 Sum of Mulliken atomic charges =   0.00000

 Dipole moment (field-independent basis, Debye):
    X=             -3.1545    Y=             -2.1528    Z=              2.9783  Tot=              4.8431
 Quadrupole moment (field-independent basis, Debye-Ang):
   XX=           -104.6657   YY=           -129.4800   ZZ=           -137.7873
   XY=              3.6313   XZ=             11.2195   YZ=              4.4224

 Normal termination of Gaussian 09 at Fri Dec 23 14:33:45 2022.
