 Gaussian 09, Revision C.01,

 ------------------------------------------------
 # mPW1PW91/6-31+G** scrf=(PCM,solvent=water) nmr
 ------------------------------------------------

 99/9=1/99;
 -------
 comment
 -------
 Charge =  0 Multiplicity = 1

 SCF Done:  E(RmPW1PW91) =  -1002.31694244     A.U. after   14 cycles

      1  C    Isotropic =   121.7363   Anisotropy =    49.9754

      2  C    Isotropic =   162.5650   Anisotropy =    23.6286

      3  H    Isotropic =    29.4457   Anisotropy =     6.8172

      4  H    Isotropic =    29.8429   Anisotropy =     9.4233

      5  C    Isotropic =   166.5427   Anisotropy =    24.8682

      6  H    Isotropic =    30.2463   Anisotropy =     9.8050

      7  C    Isotropic =   152.6047   Anisotropy =    32.2386

      8  H    Isotropic =    28.1556   Anisotropy =     4.0864

      9  C    Isotropic =   156.2748   Anisotropy =    15.3447

     10  H    Isotropic =    27.2456   Anisotropy =     6.4619

     11  C    Isotropic =   112.8632   Anisotropy =    37.3561

     12  H    Isotropic =    27.7422   Anisotropy =     3.3832

     13  C    Isotropic =    87.3089   Anisotropy =   121.2423

     14  C    Isotropic =    49.6832   Anisotropy =   189.2110

     15  C    Isotropic =    40.9781   Anisotropy =   129.9350

     16  C    Isotropic =    44.9058   Anisotropy =   124.2942

     17  C    Isotropic =    91.9206   Anisotropy =    96.5734

     18  C    Isotropic =    87.5935   Anisotropy =   108.9144

     19  H    Isotropic =    25.2770   Anisotropy =     7.1101

     20  H    Isotropic =    24.9918   Anisotropy =     7.7666

     21  O    Isotropic =   228.1037   Anisotropy =    39.2807

     22  H    Isotropic =    26.6992   Anisotropy =    15.4255

     23  O    Isotropic =   218.2294   Anisotropy =    75.7629

     24  H    Isotropic =    21.8000   Anisotropy =    27.7829

     25  O    Isotropic =   285.9755   Anisotropy =    41.1825

     26  H    Isotropic =    28.5862   Anisotropy =    18.9454

     27  C    Isotropic =   168.0435   Anisotropy =    45.5302

     28  H    Isotropic =    30.1593   Anisotropy =     9.6445

     29  H    Isotropic =    30.7577   Anisotropy =     9.4110

     30  H    Isotropic =    30.2079   Anisotropy =     9.1365

     31  O    Isotropic =   265.0074   Anisotropy =    48.8928

     32  H    Isotropic =    30.2821   Anisotropy =    16.1002

     33  H    Isotropic =    29.3924   Anisotropy =     6.5176

     34  C    Isotropic =    44.9539   Anisotropy =   182.3500

     35  C    Isotropic =    86.6698   Anisotropy =    97.7399

     36  H    Isotropic =    26.8144   Anisotropy =     6.7496

     37  H    Isotropic =    26.5427   Anisotropy =     7.4585

     38  C    Isotropic =   178.0626   Anisotropy =    28.5928

     39  H    Isotropic =    29.7680   Anisotropy =     8.3401

     40  H    Isotropic =    30.1328   Anisotropy =     8.7659

     41  H    Isotropic =    29.8628   Anisotropy =     6.1546

     42  C    Isotropic =   164.7378   Anisotropy =    27.0637

     43  H    Isotropic =    29.1430   Anisotropy =     7.1685

     44  H    Isotropic =    29.2138   Anisotropy =     7.2807

     45  C    Isotropic =   178.6533   Anisotropy =    31.8318

     46  H    Isotropic =    30.2275   Anisotropy =    12.0735

     47  H    Isotropic =    30.5799   Anisotropy =     7.3883

     48  H    Isotropic =    30.6155   Anisotropy =     7.4233

 Normal termination of Gaussian 09 at Fri Dec 23 14:21:33 2022.
 Gaussian 09:  EM64L-G09RevC.01 23-Sep-2011

 ----------------------------------------------------------------------
 # B3LYP/6-31+G** geom=allcheck test scrf=(pcm,solvent=water,smd,dovacu
 um)
 ----------------------------------------------------------------------

 Structure from the checkpoint file:  01_RRSS_THC_003_optB_NMR.chk
 -------
 comment
 -------
 Charge =  0 Multiplicity = 1

                         Standard orientation:
 ---------------------------------------------------------------------
 Center     Atomic      Atomic             Coordinates (Angstroms)
 Number     Number       Type             X           Y           Z
 ---------------------------------------------------------------------
      1          6           0       -3.038748   -1.245137    0.293878
      2          6           0       -3.678511   -0.119314   -0.536478
      3          1           0       -3.634331   -0.361583   -1.605644
      4          1           0       -4.738753   -0.017057   -0.272349
      5          6           0       -3.001272    1.233537   -0.301103
      6          1           0       -3.465127    1.981954   -0.956027
      7          6           0       -1.479431    1.184019   -0.557787
      8          1           0       -1.366293    0.938326   -1.621701
      9          6           0       -0.827682    0.043177    0.284000
     10          1           0       -1.057122    0.285409    1.329397
     11          6           0       -1.512743   -1.323782    0.011084
     12          1           0       -1.053283   -2.078681    0.662913
     13          6           0        0.696163   -0.063206    0.162022
     14          6           0        3.541978   -0.100772    0.020022
     15          6           0        1.371709   -0.195826   -1.061402
     16          6           0        1.495257   -0.003386    1.317687
     17          6           0        2.893351   -0.020705    1.255385
     18          6           0        2.766403   -0.197517   -1.137744
     19          1           0        3.486581    0.027221    2.164173
     20          1           0        3.240034   -0.289338   -2.112449
     21          8           0        0.891556    0.062106    2.546313
     22          1           0        1.572390    0.231668    3.217835
     23          8           0        0.724650   -0.359754   -2.255276
     24          1           0       -0.131469   -0.798091   -2.059206
     25          8           0       -1.285804   -1.729240   -1.350400
     26          1           0       -1.444922   -2.691201   -1.390791
     27          6           0       -3.742656   -2.572406   -0.009427
     28          1           0       -4.795397   -2.530735    0.293471
     29          1           0       -3.288857   -3.390289    0.561660
     30          1           0       -3.703986   -2.828882   -1.072648
     31          8           0       -3.268979   -0.956141    1.678568
     32          1           0       -2.826709   -1.637116    2.214719
     33          1           0       -3.207011    1.550752    0.728517
     34          6           0       -0.851284    2.561736   -0.331156
     35          6           0       -0.215337    3.200483   -1.329075
     36          1           0        0.243800    4.173142   -1.184236
     37          1           0       -0.118816    2.757097   -2.316231
     38          6           0       -0.947041    3.183948    1.036041
     39          1           0       -1.987600    3.403726    1.291693
     40          1           0       -0.394060    4.128178    1.092609
     41          1           0       -0.530662    2.522315    1.800153
     42          6           0        5.045658   -0.125929   -0.062487
     43          1           0        5.372148    0.345915   -0.997295
     44          1           0        5.469379    0.480968    0.746958
     45          6           0        5.593444   -1.542693    0.016659
     46          1           0        6.686175   -1.529877   -0.045593
     47          1           0        5.214070   -2.161797   -0.803385
     48          1           0        5.312902   -2.025162    0.959104
 ---------------------------------------------------------------------

 SCF Done:  E(RB3LYP) =  -1002.55864505     A.U. after   14 cycles

 The electronic state is 1-A.
 Alpha  occ. eigenvalues --  -19.18675 -19.17795 -19.16750 -19.16084 -10.25351
 Alpha  occ. eigenvalues --  -10.24819 -10.24405 -10.24384 -10.19825 -10.19673
 Alpha  occ. eigenvalues --  -10.19648 -10.19268 -10.18939 -10.18074 -10.17861
 Alpha  occ. eigenvalues --  -10.17604 -10.17477 -10.17438 -10.17217 -10.17073
 Alpha  occ. eigenvalues --  -10.16966 -10.16926  -1.06460  -1.05826  -1.04035
 Alpha  occ. eigenvalues --   -1.02767  -0.85555  -0.83488  -0.79136  -0.78892
 Alpha  occ. eigenvalues --   -0.75570  -0.73950  -0.73151  -0.71096  -0.68262
 Alpha  occ. eigenvalues --   -0.67445  -0.64321  -0.61998  -0.60921  -0.59854
 Alpha  occ. eigenvalues --   -0.58578  -0.56609  -0.54401  -0.53094  -0.52386
 Alpha  occ. eigenvalues --   -0.49961  -0.49362  -0.48694  -0.47728  -0.46116
 Alpha  occ. eigenvalues --   -0.44909  -0.44302  -0.43811  -0.43286  -0.42763
 Alpha  occ. eigenvalues --   -0.41840  -0.41608  -0.41095  -0.40922  -0.39899
 Alpha  occ. eigenvalues --   -0.39631  -0.39368  -0.38284  -0.37732  -0.37526
 Alpha  occ. eigenvalues --   -0.36837  -0.36502  -0.36203  -0.35744  -0.35148
 Alpha  occ. eigenvalues --   -0.34791  -0.34026  -0.33512  -0.33088  -0.32432
 Alpha  occ. eigenvalues --   -0.31728  -0.31031  -0.29762  -0.29277  -0.26917
 Alpha  occ. eigenvalues --   -0.24587  -0.22750  -0.21848
 Alpha virt. eigenvalues --   -0.00686   0.00110   0.00444   0.00609   0.01328
 Alpha virt. eigenvalues --    0.01793   0.02061   0.02875   0.03390   0.03638
 Alpha virt. eigenvalues --    0.03861   0.04326   0.04487   0.04751   0.05546

 Mulliken atomic charges:
              1
     1  C    0.291254
     2  C   -0.286903
     3  H    0.166961
     4  H    0.155919
     5  C   -0.686760
     6  H    0.150628
     7  C    0.147315
     8  H    0.141202
     9  C   -0.313814
    10  H    0.172083
    11  C   -0.232513
    12  H    0.155821
    13  C    0.339339
    14  C    0.013276
    15  C   -1.264893
    16  C    0.506861
    17  C   -0.105131
    18  C    0.368377
    19  H    0.148366
    20  H    0.146380
    21  O   -0.595803
    22  H    0.447067
    23  O   -0.624712
    24  H    0.474676
    25  O   -0.679750
    26  H    0.447466
    27  C   -0.320516
    28  H    0.167484
    29  H    0.163200
    30  H    0.169121
    31  O   -0.594969
    32  H    0.404781
    33  H    0.155520
    34  C    0.628882
    35  C   -0.521757
    36  H    0.145249
    37  H    0.141068
    38  C   -0.633792
    39  H    0.172442
    40  H    0.157013
    41  H    0.171061
    42  C   -0.065231
    43  H    0.151684
    44  H    0.151144
    45  C   -0.591707
    46  H    0.151862
    47  H    0.157191
    48  H    0.157558
 Sum of Mulliken atomic charges =   0.00000

 Dipole moment (field-independent basis, Debye):
    X=              0.0023    Y=             -4.3883    Z=              3.6785  Tot=              5.7261
 Quadrupole moment (field-independent basis, Debye-Ang):
   XX=           -126.7380   YY=           -124.8747   ZZ=           -133.8228
   XY=              9.2520   XZ=             13.7977   YZ=              2.7197

 Normal termination of Gaussian 09 at Fri Dec 23 14:39:45 2022.
