 Gaussian 09, Revision C.01,

 ------------------------------------------------
 # mPW1PW91/6-31+G** scrf=(PCM,solvent=water) nmr
 ------------------------------------------------

 99/9=1/99;
 -------
 comment
 -------
 Charge =  0 Multiplicity = 1

 SCF Done:  E(RmPW1PW91) =  -1002.31554264     A.U. after   14 cycles

      1  C    Isotropic =   122.0734   Anisotropy =    51.1646

      2  C    Isotropic =   161.5411   Anisotropy =    23.4255

      3  H    Isotropic =    29.4959   Anisotropy =     6.5255

      4  H    Isotropic =    29.9158   Anisotropy =     9.3248

      5  C    Isotropic =   163.1323   Anisotropy =    28.3112

      6  H    Isotropic =    29.7956   Anisotropy =     9.0943

      7  C    Isotropic =   154.1099   Anisotropy =    25.8237

      8  H    Isotropic =    28.5460   Anisotropy =     4.7533

      9  C    Isotropic =   155.3791   Anisotropy =    16.7201

     10  H    Isotropic =    27.2379   Anisotropy =     6.8777

     11  C    Isotropic =   112.8816   Anisotropy =    36.7161

     12  H    Isotropic =    27.7111   Anisotropy =     3.4834

     13  C    Isotropic =    85.5255   Anisotropy =   122.2592

     14  C    Isotropic =    50.9287   Anisotropy =   189.2206

     15  C    Isotropic =    41.7563   Anisotropy =   129.6434

     16  C    Isotropic =    45.0517   Anisotropy =   124.9019

     17  C    Isotropic =    91.9897   Anisotropy =    95.3976

     18  C    Isotropic =    88.0065   Anisotropy =   107.8923

     19  H    Isotropic =    25.2679   Anisotropy =     7.1449

     20  H    Isotropic =    24.9278   Anisotropy =     7.7741

     21  O    Isotropic =   229.3102   Anisotropy =    50.8156

     22  H    Isotropic =    26.6663   Anisotropy =    15.3966

     23  O    Isotropic =   218.0885   Anisotropy =    84.5673

     24  H    Isotropic =    21.7340   Anisotropy =    27.8068

     25  O    Isotropic =   284.3805   Anisotropy =    41.0951

     26  H    Isotropic =    28.5889   Anisotropy =    18.8533

     27  C    Isotropic =   167.4452   Anisotropy =    46.9667

     28  H    Isotropic =    30.2394   Anisotropy =     9.4760

     29  H    Isotropic =    30.7339   Anisotropy =     9.4181

     30  H    Isotropic =    30.1890   Anisotropy =     9.0820

     31  O    Isotropic =   261.9224   Anisotropy =    45.7367

     32  H    Isotropic =    30.2152   Anisotropy =    16.0199

     33  H    Isotropic =    29.8679   Anisotropy =     6.2686

     34  C    Isotropic =    41.7756   Anisotropy =   184.6361

     35  C    Isotropic =    91.6306   Anisotropy =   118.3267

     36  H    Isotropic =    26.4288   Anisotropy =     5.1595

     37  H    Isotropic =    26.3671   Anisotropy =     7.6465

     38  C    Isotropic =   169.7290   Anisotropy =    39.7645

     39  H    Isotropic =    29.9723   Anisotropy =     6.0175

     40  H    Isotropic =    30.0888   Anisotropy =     8.9502

     41  H    Isotropic =    29.6506   Anisotropy =     8.2851

     42  C    Isotropic =   164.2353   Anisotropy =    29.8541

     43  H    Isotropic =    29.3143   Anisotropy =     7.5210

     44  H    Isotropic =    29.2363   Anisotropy =     7.4852

     45  C    Isotropic =   178.2173   Anisotropy =    28.9419

     46  H    Isotropic =    30.2644   Anisotropy =    12.0823

     47  H    Isotropic =    30.6861   Anisotropy =     7.3930

     48  H    Isotropic =    30.6544   Anisotropy =     7.2801

 Normal termination of Gaussian 09 at Fri Dec 23 16:58:55 2022.
 Gaussian 09:  EM64L-G09RevC.01 23-Sep-2011

 ----------------------------------------------------------------------
 # B3LYP/6-31+G** geom=allcheck test scrf=(pcm,solvent=water,smd,dovacu
 um)
 ----------------------------------------------------------------------

 Structure from the checkpoint file:  01_RRSS_THC_010_optB_NMR.chk
 -------
 comment
 -------
 Charge =  0 Multiplicity = 1

                         Standard orientation:
 ---------------------------------------------------------------------
 Center     Atomic      Atomic             Coordinates (Angstroms)
 Number     Number       Type             X           Y           Z
 ---------------------------------------------------------------------
      1          6           0       -3.229529   -0.936401    0.172262
      2          6           0       -3.673070    0.405098   -0.435437
      3          1           0       -3.671611    0.344948   -1.531016
      4          1           0       -4.701175    0.633083   -0.126637
      5          6           0       -2.780622    1.570053    0.000596
      6          1           0       -3.112459    2.480146   -0.515443
      7          6           0       -1.286719    1.315181   -0.293286
      8          1           0       -1.193804    1.244311   -1.384142
      9          6           0       -0.838297   -0.045259    0.327303
     10          1           0       -1.031210    0.042038    1.403841
     11          6           0       -1.737016   -1.212967   -0.161217
     12          1           0       -1.410195   -2.135049    0.337561
     13          6           0        0.648596   -0.371729    0.151992
     14          6           0        3.450573   -0.841776   -0.064213
     15          6           0        1.298364   -0.395183   -1.091913
     16          6           0        1.443619   -0.634571    1.281923
     17          6           0        2.821183   -0.861427    1.183539
     18          6           0        2.674997   -0.604073   -1.201460
     19          1           0        3.413392   -1.052541    2.073966
     20          1           0        3.132646   -0.590702   -2.187963
     21          8           0        0.855638   -0.678537    2.519225
     22          1           0        1.554210   -0.722785    3.192403
     23          8           0        0.637445   -0.241753   -2.279399
     24          1           0       -0.276328   -0.573925   -2.143256
     25          8           0       -1.575602   -1.404842   -1.577860
     26          1           0       -1.897684   -2.303374   -1.781065
     27          6           0       -4.142448   -2.058263   -0.334954
     28          1           0       -5.174525   -1.898464   -0.001723
     29          1           0       -3.831344   -3.025530    0.075681
     30          1           0       -4.144335   -2.129738   -1.427012
     31          8           0       -3.412643   -0.858546    1.591399
     32          1           0       -3.081343   -1.680859    1.992294
     33          1           0       -2.929804    1.751617    1.073046
     34          6           0       -0.469568    2.529537    0.152059
     35          6           0       -0.176225    2.799547    1.435817
     36          1           0        0.411324    3.669086    1.713079
     37          1           0       -0.512121    2.159713    2.245756
     38          6           0        0.004461    3.432162   -0.954776
     39          1           0        0.658699    2.882960   -1.639466
     40          1           0        0.567125    4.291394   -0.574804
     41          1           0       -0.849396    3.817897   -1.521114
     42          6           0        4.937183   -1.052652   -0.182562
     43          1           0        5.276199   -1.739864    0.602195
     44          1           0        5.166241   -1.544903   -1.135606
     45          6           0        5.702884    0.257884   -0.084034
     46          1           0        6.778459    0.075342   -0.172972
     47          1           0        5.520950    0.753190    0.875799
     48          1           0        5.409196    0.950454   -0.880156
 ---------------------------------------------------------------------

 SCF Done:  E(RB3LYP) =  -1002.55734407     A.U. after   14 cycles

 The electronic state is 1-A.
 Alpha  occ. eigenvalues --  -19.18676 -19.17828 -19.16748 -19.16086 -10.25325
 Alpha  occ. eigenvalues --  -10.24814 -10.24398 -10.24360 -10.19788 -10.19646
 Alpha  occ. eigenvalues --  -10.19570 -10.19263 -10.18892 -10.18074 -10.17865
 Alpha  occ. eigenvalues --  -10.17576 -10.17547 -10.17493 -10.17266 -10.17072
 Alpha  occ. eigenvalues --  -10.16968 -10.16758  -1.06453  -1.05841  -1.04053
 Alpha  occ. eigenvalues --   -1.02774  -0.85548  -0.83480  -0.79133  -0.78873
 Alpha  occ. eigenvalues --   -0.75564  -0.73946  -0.73153  -0.71096  -0.68048
 Alpha  occ. eigenvalues --   -0.67509  -0.64339  -0.62003  -0.60913  -0.59974
 Alpha  occ. eigenvalues --   -0.58624  -0.56684  -0.54427  -0.53072  -0.52282
 Alpha  occ. eigenvalues --   -0.49862  -0.49337  -0.48657  -0.47726  -0.46282
 Alpha  occ. eigenvalues --   -0.44880  -0.44194  -0.43608  -0.43216  -0.42645
 Alpha  occ. eigenvalues --   -0.42161  -0.41662  -0.40777  -0.40445  -0.40279
 Alpha  occ. eigenvalues --   -0.39817  -0.39315  -0.38596  -0.37921  -0.37201
 Alpha  occ. eigenvalues --   -0.36884  -0.36602  -0.36215  -0.35960  -0.35159
 Alpha  occ. eigenvalues --   -0.34459  -0.34093  -0.33502  -0.33045  -0.32547
 Alpha  occ. eigenvalues --   -0.31887  -0.30859  -0.29845  -0.29206  -0.26923
 Alpha  occ. eigenvalues --   -0.24344  -0.22681  -0.21877
 Alpha virt. eigenvalues --   -0.00492  -0.00119   0.00168   0.00766   0.01382
 Alpha virt. eigenvalues --    0.01851   0.02109   0.02825   0.03282   0.03651
 Alpha virt. eigenvalues --    0.04054   0.04376   0.04486   0.04908   0.05572

 Mulliken atomic charges:
              1
     1  C    0.344262
     2  C   -0.288844
     3  H    0.166861
     4  H    0.155770
     5  C   -0.649764
     6  H    0.151152
     7  C    0.198166
     8  H    0.145072
     9  C   -0.330766
    10  H    0.169527
    11  C   -0.250884
    12  H    0.155137
    13  C    0.225189
    14  C   -0.028571
    15  C   -1.261765
    16  C    0.642259
    17  C   -0.177191
    18  C    0.385059
    19  H    0.148004
    20  H    0.146313
    21  O   -0.586686
    22  H    0.445251
    23  O   -0.628193
    24  H    0.472987
    25  O   -0.680781
    26  H    0.447705
    27  C   -0.350553
    28  H    0.167501
    29  H    0.163459
    30  H    0.168881
    31  O   -0.594280
    32  H    0.405394
    33  H    0.157590
    34  C    0.512387
    35  C   -0.473829
    36  H    0.145871
    37  H    0.145095
    38  C   -0.638057
    39  H    0.170771
    40  H    0.154847
    41  H    0.171193
    42  C    0.013114
    43  H    0.150882
    44  H    0.151392
    45  C   -0.604612
    46  H    0.152236
    47  H    0.157762
    48  H    0.157687
 Sum of Mulliken atomic charges =   0.00000

 Dipole moment (field-independent basis, Debye):
    X=             -0.4997    Y=             -4.4827    Z=              1.4462  Tot=              4.7366
 Quadrupole moment (field-independent basis, Debye-Ang):
   XX=           -124.1463   YY=           -125.2650   ZZ=           -134.0048
   XY=              7.3798   XZ=             16.4038   YZ=             -3.3148

 Normal termination of Gaussian 09 at Fri Dec 23 18:21:37 2022.
