 Gaussian 09, Revision C.01,

 ------------------------------------------------
 # mPW1PW91/6-31+G** scrf=(PCM,solvent=water) nmr
 ------------------------------------------------

 99/9=1/99;
 -------
 comment
 -------
 Charge =  0 Multiplicity = 1

 SCF Done:  E(RmPW1PW91) =  -1002.30131386     A.U. after   14 cycles

      1  C    Isotropic =   120.4074   Anisotropy =    45.5822

      2  C    Isotropic =   156.8483   Anisotropy =    30.3224

      3  H    Isotropic =    30.0266   Anisotropy =     8.8406

      4  H    Isotropic =    29.4472   Anisotropy =     6.0632

      5  C    Isotropic =   163.0049   Anisotropy =    28.0153

      6  H    Isotropic =    29.2721   Anisotropy =     7.6524

      7  C    Isotropic =   150.5976   Anisotropy =    26.0735

      8  H    Isotropic =    27.7680   Anisotropy =     7.0210

      9  C    Isotropic =   152.0441   Anisotropy =    22.7788

     10  H    Isotropic =    28.1509   Anisotropy =     4.6462

     11  C    Isotropic =   120.9821   Anisotropy =    42.1011

     12  H    Isotropic =    26.3637   Anisotropy =     3.5183

     13  C    Isotropic =    84.7053   Anisotropy =   123.8170

     14  C    Isotropic =    50.3079   Anisotropy =   189.2982

     15  C    Isotropic =    44.3193   Anisotropy =   123.0660

     16  C    Isotropic =    43.0887   Anisotropy =   122.5490

     17  C    Isotropic =    85.0321   Anisotropy =   110.7889

     18  C    Isotropic =    90.7240   Anisotropy =    97.7794

     19  H    Isotropic =    24.8329   Anisotropy =     7.8664

     20  H    Isotropic =    25.2035   Anisotropy =     7.4666

     21  O    Isotropic =   236.1650   Anisotropy =    60.9995

     22  H    Isotropic =    22.6168   Anisotropy =    26.7162

     23  O    Isotropic =   222.7065   Anisotropy =    42.8684

     24  H    Isotropic =    26.6414   Anisotropy =    15.6026

     25  O    Isotropic =   291.4137   Anisotropy =    61.3101

     26  H    Isotropic =    27.5031   Anisotropy =    18.0215

     27  C    Isotropic =   175.0671   Anisotropy =    32.5349

     28  H    Isotropic =    30.9353   Anisotropy =     9.9094

     29  H    Isotropic =    29.9134   Anisotropy =     7.9856

     30  H    Isotropic =    29.8099   Anisotropy =     7.6957

     31  O    Isotropic =   247.8918   Anisotropy =    66.0432

     32  H    Isotropic =    29.9216   Anisotropy =    17.0711

     33  H    Isotropic =    29.9294   Anisotropy =     9.0817

     34  C    Isotropic =    42.3039   Anisotropy =   185.0737

     35  C    Isotropic =    85.2733   Anisotropy =    94.3942

     36  H    Isotropic =    26.7626   Anisotropy =     6.8028

     37  H    Isotropic =    26.8211   Anisotropy =     7.7808

     38  C    Isotropic =   171.5991   Anisotropy =    27.3511

     39  H    Isotropic =    29.6442   Anisotropy =     5.9249

     40  H    Isotropic =    29.8368   Anisotropy =     9.0442

     41  H    Isotropic =    29.5674   Anisotropy =     5.4513

     42  C    Isotropic =   164.9367   Anisotropy =    28.3246

     43  H    Isotropic =    29.2919   Anisotropy =     7.2431

     44  H    Isotropic =    29.2382   Anisotropy =     7.3251

     45  C    Isotropic =   177.1024   Anisotropy =    30.2589

     46  H    Isotropic =    30.3031   Anisotropy =    12.0057

     47  H    Isotropic =    30.6394   Anisotropy =     7.5030

     48  H    Isotropic =    30.6072   Anisotropy =     7.4490

 Normal termination of Gaussian 09 at Fri Dec 23 14:20:15 2022.
 Gaussian 09:  EM64L-G09RevC.01 23-Sep-2011

 ----------------------------------------------------------------------
 # B3LYP/6-31+G** geom=allcheck test scrf=(pcm,solvent=water,smd,dovacu
 um)
 ----------------------------------------------------------------------

 Structure from the checkpoint file:  02_RSSS_THC_007_optB_NMR.chk
 -------
 comment
 -------
 Charge =  0 Multiplicity = 1

                         Standard orientation:
 ---------------------------------------------------------------------
 Center     Atomic      Atomic             Coordinates (Angstroms)
 Number     Number       Type             X           Y           Z
 ---------------------------------------------------------------------
      1          6           0        3.182572   -0.905251    0.233759
      2          6           0        3.686592    0.518507   -0.003245
      3          1           0        4.714473    0.620382    0.368719
      4          1           0        3.765410    0.707391   -1.079139
      5          6           0        2.802657    1.570403    0.655811
      6          1           0        2.948665    1.507022    1.742384
      7          6           0        1.287644    1.438756    0.370315
      8          1           0        0.833566    2.002493    1.197053
      9          6           0        0.764111   -0.038839    0.523181
     10          1           0        0.868472   -0.308804    1.584354
     11          6           0        1.706090   -1.018660   -0.220359
     12          1           0        1.674333   -0.842595   -1.299886
     13          6           0       -0.754860   -0.142155    0.289476
     14          6           0       -3.585233   -0.068688   -0.124297
     15          6           0       -1.627156    0.527291    1.174084
     16          6           0       -1.370868   -0.840572   -0.758850
     17          6           0       -2.751126   -0.787761   -0.981335
     18          6           0       -3.012849    0.572755    0.974900
     19          1           0       -3.169441   -1.337147   -1.821859
     20          1           0       -3.653704    1.105867    1.671220
     21          8           0       -0.692059   -1.665033   -1.610317
     22          1           0       -0.084771   -2.184155   -1.037575
     23          8           0       -1.108303    1.140457    2.286741
     24          1           0       -1.837174    1.533670    2.793289
     25          8           0        1.279777   -2.387359   -0.053098
     26          1           0        2.052591   -2.916509   -0.347770
     27          6           0        3.415756   -1.361604    1.681088
     28          1           0        4.483370   -1.320954    1.927942
     29          1           0        3.115061   -2.406015    1.819808
     30          1           0        2.880964   -0.750740    2.412643
     31          8           0        3.936056   -1.809876   -0.597412
     32          1           0        4.880599   -1.675228   -0.400734
     33          1           0        3.159993    2.568619    0.372236
     34          6           0        0.879316    2.199814   -0.900290
     35          6           0        0.250070    3.386279   -0.800368
     36          1           0       -0.062564    3.943052   -1.678696
     37          1           0        0.015856    3.829705    0.162649
     38          6           0        1.159320    1.631683   -2.262922
     39          1           0        2.220846    1.416508   -2.393883
     40          1           0        0.883326    2.332095   -3.059781
     41          1           0        0.583353    0.720521   -2.435611
     42          6           0       -5.073164   -0.034678   -0.352311
     43          1           0       -5.477563    0.923149   -0.002861
     44          1           0       -5.282753   -0.077243   -1.428126
     45          6           0       -5.781531   -1.180058    0.354783
     46          1           0       -6.859414   -1.129166    0.171255
     47          1           0       -5.619397   -1.139854    1.437269
     48          1           0       -5.421915   -2.150906   -0.002727
 ---------------------------------------------------------------------

 SCF Done:  E(RB3LYP) =  -1002.54182931     A.U. after   14 cycles

 The electronic state is 1-A.
 Alpha  occ. eigenvalues --  -19.18701 -19.17499 -19.16579 -19.16302 -10.25514
 Alpha  occ. eigenvalues --  -10.24793 -10.24780 -10.24377 -10.20737 -10.19837
 Alpha  occ. eigenvalues --  -10.19772 -10.19598 -10.19320 -10.18078 -10.18015
 Alpha  occ. eigenvalues --  -10.17869 -10.17565 -10.17494 -10.17086 -10.17076
 Alpha  occ. eigenvalues --  -10.17027 -10.16939  -1.06466  -1.05952  -1.04350
 Alpha  occ. eigenvalues --   -1.02180  -0.85650  -0.83810  -0.79132  -0.79071
 Alpha  occ. eigenvalues --   -0.75410  -0.73731  -0.73031  -0.71189  -0.69098
 Alpha  occ. eigenvalues --   -0.67346  -0.64416  -0.62283  -0.61119  -0.60493
 Alpha  occ. eigenvalues --   -0.58679  -0.56665  -0.53722  -0.51717  -0.51356
 Alpha  occ. eigenvalues --   -0.50643  -0.49842  -0.48736  -0.47469  -0.46253
 Alpha  occ. eigenvalues --   -0.45420  -0.44958  -0.43895  -0.43222  -0.42969
 Alpha  occ. eigenvalues --   -0.42446  -0.41832  -0.41323  -0.40667  -0.40137
 Alpha  occ. eigenvalues --   -0.39903  -0.38760  -0.38693  -0.38309  -0.38007
 Alpha  occ. eigenvalues --   -0.37069  -0.36779  -0.36360  -0.35714  -0.35185
 Alpha  occ. eigenvalues --   -0.34205  -0.33936  -0.33244  -0.33008  -0.32087
 Alpha  occ. eigenvalues --   -0.31271  -0.30451  -0.29875  -0.28706  -0.28147
 Alpha  occ. eigenvalues --   -0.24525  -0.22956  -0.21993
 Alpha virt. eigenvalues --   -0.00603   0.00186   0.00329   0.00388   0.01370
 Alpha virt. eigenvalues --    0.01790   0.01917   0.02705   0.03332   0.03512
 Alpha virt. eigenvalues --    0.04297   0.04553   0.04640   0.04803   0.05347

 Mulliken atomic charges:
              1
     1  C    0.224946
     2  C   -0.354454
     3  H    0.157625
     4  H    0.161010
     5  C   -0.351067
     6  H    0.161943
     7  C   -0.240984
     8  H    0.148033
     9  C    0.419124
    10  H    0.169418
    11  C   -0.194694
    12  H    0.169810
    13  C    0.393526
    14  C    0.020602
    15  C    0.342331
    16  C   -0.210551
    17  C   -0.839502
    18  C   -0.027956
    19  H    0.147618
    20  H    0.150318
    21  O   -0.624884
    22  H    0.449210
    23  O   -0.606701
    24  H    0.446541
    25  O   -0.673656
    26  H    0.432020
    27  C   -0.330404
    28  H    0.165829
    29  H    0.162681
    30  H    0.172663
    31  O   -0.616222
    32  H    0.415025
    33  H    0.153281
    34  C    0.458614
    35  C   -0.583435
    36  H    0.147031
    37  H    0.141464
    38  C   -0.724095
    39  H    0.169399
    40  H    0.153070
    41  H    0.178533
    42  C   -0.113839
    43  H    0.151173
    44  H    0.151892
    45  C   -0.588783
    46  H    0.151821
    47  H    0.157421
    48  H    0.157256
 Sum of Mulliken atomic charges =   0.00000

 Dipole moment (field-independent basis, Debye):
    X=              2.8969    Y=              2.1315    Z=              3.6928  Tot=              5.1548
 Quadrupole moment (field-independent basis, Debye-Ang):
   XX=           -101.7208   YY=           -139.3896   ZZ=           -134.3457
   XY=             -7.3037   XZ=             -2.8345   YZ=              1.6960

 Normal termination of Gaussian 09 at Fri Dec 23 14:35:16 2022.
