 Gaussian 09, Revision C.01,

 ------------------------------------------------
 # mPW1PW91/6-31+G** scrf=(PCM,solvent=water) nmr
 ------------------------------------------------

 99/9=1/99;
 -------
 comment
 -------
 Charge =  0 Multiplicity = 1

 SCF Done:  E(RmPW1PW91) =  -1002.30149502     A.U. after   14 cycles

      1  C    Isotropic =   120.4962   Anisotropy =    44.4491

      2  C    Isotropic =   158.4800   Anisotropy =    33.4602

      3  H    Isotropic =    30.0719   Anisotropy =     8.9706

      4  H    Isotropic =    29.4516   Anisotropy =     6.0468

      5  C    Isotropic =   166.1144   Anisotropy =    21.3672

      6  H    Isotropic =    29.5737   Anisotropy =     8.0455

      7  C    Isotropic =   151.5446   Anisotropy =    22.1369

      8  H    Isotropic =    28.0119   Anisotropy =     7.0173

      9  C    Isotropic =   152.5359   Anisotropy =    24.0280

     10  H    Isotropic =    28.1331   Anisotropy =     5.3533

     11  C    Isotropic =   119.7017   Anisotropy =    40.9633

     12  H    Isotropic =    26.4106   Anisotropy =     2.6256

     13  C    Isotropic =    88.6987   Anisotropy =   115.8968

     14  C    Isotropic =    51.1349   Anisotropy =   189.5922

     15  C    Isotropic =    42.9778   Anisotropy =   125.2761

     16  C    Isotropic =    42.0740   Anisotropy =   123.8784

     17  C    Isotropic =    83.3779   Anisotropy =   108.2100

     18  C    Isotropic =    90.2048   Anisotropy =    97.8982

     19  H    Isotropic =    24.7733   Anisotropy =     7.5750

     20  H    Isotropic =    25.1060   Anisotropy =     7.0469

     21  O    Isotropic =   237.8128   Anisotropy =    57.6726

     22  H    Isotropic =    23.0583   Anisotropy =    26.2301

     23  O    Isotropic =   223.7247   Anisotropy =    42.3381

     24  H    Isotropic =    26.4405   Anisotropy =    15.2112

     25  O    Isotropic =   294.5529   Anisotropy =    63.3626

     26  H    Isotropic =    27.6876   Anisotropy =    17.9955

     27  C    Isotropic =   174.4660   Anisotropy =    32.2666

     28  H    Isotropic =    30.8700   Anisotropy =     9.8490

     29  H    Isotropic =    29.9771   Anisotropy =     7.8850

     30  H    Isotropic =    29.8007   Anisotropy =     7.7123

     31  O    Isotropic =   247.3306   Anisotropy =    67.8686

     32  H    Isotropic =    29.9642   Anisotropy =    16.8196

     33  H    Isotropic =    29.9885   Anisotropy =     9.5867

     34  C    Isotropic =    41.7437   Anisotropy =   181.5181

     35  C    Isotropic =    86.3992   Anisotropy =   112.0923

     36  H    Isotropic =    26.2654   Anisotropy =     5.1746

     37  H    Isotropic =    26.1736   Anisotropy =     6.2173

     38  C    Isotropic =   166.2244   Anisotropy =    44.6108

     39  H    Isotropic =    30.3977   Anisotropy =     6.5380

     40  H    Isotropic =    30.1653   Anisotropy =     8.6696

     41  H    Isotropic =    29.7993   Anisotropy =     8.2777

     42  C    Isotropic =   163.6531   Anisotropy =    30.0374

     43  H    Isotropic =    29.1237   Anisotropy =     7.4020

     44  H    Isotropic =    29.2353   Anisotropy =     7.4336

     45  C    Isotropic =   177.2148   Anisotropy =    30.1659

     46  H    Isotropic =    30.2590   Anisotropy =    12.1142

     47  H    Isotropic =    30.5917   Anisotropy =     7.1086

     48  H    Isotropic =    30.5963   Anisotropy =     7.0451

 Normal termination of Gaussian 09 at Fri Dec 23 14:02:31 2022.
 Gaussian 09:  EM64L-G09RevC.01 23-Sep-2011

 ----------------------------------------------------------------------
 # B3LYP/6-31+G** geom=allcheck test scrf=(pcm,solvent=water,smd,dovacu
 um)
 ----------------------------------------------------------------------

 Structure from the checkpoint file:  02_RSSS_THC_009_optB_NMR.chk
 -------
 comment
 -------
 Charge =  0 Multiplicity = 1

                         Standard orientation:
 ---------------------------------------------------------------------
 Center     Atomic      Atomic             Coordinates (Angstroms)
 Number     Number       Type             X           Y           Z
 ---------------------------------------------------------------------
      1          6           0        3.296288   -0.621171    0.078517
      2          6           0        3.601466    0.863283   -0.138162
      3          1           0        4.621607    1.089939    0.198516
      4          1           0        3.614311    1.086207   -1.210725
      5          6           0        2.616390    1.779694    0.581090
      6          1           0        2.812705    1.715728    1.659547
      7          6           0        1.122787    1.452519    0.346736
      8          1           0        0.618720    1.977002    1.170048
      9          6           0        0.813796   -0.078666    0.532689
     10          1           0        1.031516   -0.328504    1.581180
     11          6           0        1.819784   -0.922158   -0.287008
     12          1           0        1.690374   -0.742213   -1.358393
     13          6           0       -0.688741   -0.384648    0.406651
     14          6           0       -3.524189   -0.700164    0.212915
     15          6           0       -1.570073    0.127479    1.382498
     16          6           0       -1.283736   -1.119732   -0.627911
     17          6           0       -2.671411   -1.252605   -0.744182
     18          6           0       -2.959966   -0.015460    1.290266
     19          1           0       -3.076688   -1.814578   -1.582763
     20          1           0       -3.610555    0.409172    2.049330
     21          8           0       -0.566903   -1.808354   -1.564244
     22          1           0        0.138454   -2.268434   -1.057991
     23          8           0       -1.051085    0.786493    2.468524
     24          1           0       -1.779165    1.023058    3.065808
     25          8           0        1.581676   -2.335871   -0.121267
     26          1           0        2.392912   -2.758693   -0.476908
     27          6           0        3.678997   -1.076088    1.494817
     28          1           0        4.747060   -0.906235    1.676081
     29          1           0        3.521098   -2.152866    1.621264
     30          1           0        3.121327   -0.553055    2.275723
     31          8           0        4.107367   -1.399527   -0.823369
     32          1           0        5.036466   -1.144048   -0.680674
     33          1           0        2.825393    2.821370    0.305920
     34          6           0        0.573105    2.105919   -0.929261
     35          6           0        0.991218    1.860870   -2.182398
     36          1           0        0.541543    2.366622   -3.032961
     37          1           0        1.770221    1.151158   -2.424782
     38          6           0       -0.526059    3.116855   -0.703562
     39          1           0       -1.392083    2.647081   -0.228765
     40          1           0       -0.870880    3.571724   -1.638390
     41          1           0       -0.168503    3.925229   -0.057178
     42          6           0       -5.017801   -0.834402    0.077616
     43          1           0       -5.261099   -1.781940   -0.418399
     44          1           0       -5.475543   -0.887523    1.072951
     45          6           0       -5.619437    0.323763   -0.703569
     46          1           0       -6.703970    0.201376   -0.786622
     47          1           0       -5.205378    0.377569   -1.716183
     48          1           0       -5.422793    1.281209   -0.209237
 ---------------------------------------------------------------------

 SCF Done:  E(RB3LYP) =  -1002.54221055     A.U. after   14 cycles

 The electronic state is 1-A.
 Alpha  occ. eigenvalues --  -19.18721 -19.17491 -19.16701 -19.16280 -10.25513
 Alpha  occ. eigenvalues --  -10.24815 -10.24792 -10.24373 -10.20711 -10.19802
 Alpha  occ. eigenvalues --  -10.19700 -10.19625 -10.19329 -10.18079 -10.18036
 Alpha  occ. eigenvalues --  -10.17916 -10.17600 -10.17524 -10.17214 -10.17077
 Alpha  occ. eigenvalues --  -10.17014 -10.16829  -1.06480  -1.05955  -1.04374
 Alpha  occ. eigenvalues --   -1.02183  -0.85676  -0.83818  -0.79110  -0.78990
 Alpha  occ. eigenvalues --   -0.75418  -0.73683  -0.73067  -0.71212  -0.68680
 Alpha  occ. eigenvalues --   -0.67612  -0.64460  -0.62311  -0.61159  -0.60544
 Alpha  occ. eigenvalues --   -0.58703  -0.56723  -0.53752  -0.51810  -0.51153
 Alpha  occ. eigenvalues --   -0.50636  -0.49828  -0.48767  -0.47402  -0.46205
 Alpha  occ. eigenvalues --   -0.45549  -0.44719  -0.43917  -0.42948  -0.42749
 Alpha  occ. eigenvalues --   -0.42327  -0.42120  -0.41597  -0.40676  -0.40435
 Alpha  occ. eigenvalues --   -0.40026  -0.38924  -0.38521  -0.38362  -0.37578
 Alpha  occ. eigenvalues --   -0.37007  -0.36917  -0.36417  -0.35643  -0.35291
 Alpha  occ. eigenvalues --   -0.34517  -0.34023  -0.33148  -0.32928  -0.31747
 Alpha  occ. eigenvalues --   -0.30899  -0.30625  -0.30044  -0.28730  -0.28079
 Alpha  occ. eigenvalues --   -0.24639  -0.22957  -0.22033
 Alpha virt. eigenvalues --   -0.00570   0.00092   0.00303   0.00385   0.01264
 Alpha virt. eigenvalues --    0.01791   0.01926   0.02844   0.03114   0.03418
 Alpha virt. eigenvalues --    0.04411   0.04526   0.04746   0.05062   0.05341

 Mulliken atomic charges:
              1
     1  C    0.218467
     2  C   -0.325783
     3  H    0.157807
     4  H    0.162942
     5  C   -0.412387
     6  H    0.160475
     7  C   -0.015583
     8  H    0.150583
     9  C    0.469113
    10  H    0.165603
    11  C   -0.057209
    12  H    0.165649
    13  C    0.399133
    14  C   -0.076841
    15  C    0.309061
    16  C   -0.257393
    17  C   -0.922127
    18  C   -0.064512
    19  H    0.147917
    20  H    0.151441
    21  O   -0.602851
    22  H    0.444143
    23  O   -0.614801
    24  H    0.447362
    25  O   -0.670355
    26  H    0.431895
    27  C   -0.336340
    28  H    0.165775
    29  H    0.162259
    30  H    0.172114
    31  O   -0.613028
    32  H    0.414198
    33  H    0.153106
    34  C    0.256651
    35  C   -0.534771
    36  H    0.143997
    37  H    0.146200
    38  C   -0.724187
    39  H    0.173497
    40  H    0.153539
    41  H    0.169122
    42  C   -0.027616
    43  H    0.151847
    44  H    0.150954
    45  C   -0.607500
    46  H    0.152318
    47  H    0.157916
    48  H    0.158199
 Sum of Mulliken atomic charges =   0.00000

 Dipole moment (field-independent basis, Debye):
    X=              2.0700    Y=              3.1979    Z=              4.4417  Tot=              5.8515
 Quadrupole moment (field-independent basis, Debye-Ang):
   XX=           -101.3276   YY=           -138.0823   ZZ=           -135.0937
   XY=             -3.4320   XZ=             -4.3065   YZ=              1.9694

 Normal termination of Gaussian 09 at Fri Dec 23 14:10:21 2022.
