 Gaussian 09, Revision C.01,

 ------------------------------------------------
 # mPW1PW91/6-31+G** scrf=(PCM,solvent=water) nmr
 ------------------------------------------------

 99/9=1/99;
 -------
 comment
 -------
 Charge =  0 Multiplicity = 1

 SCF Done:  E(RmPW1PW91) =  -1002.30676434     A.U. after   14 cycles

      1  C    Isotropic =   125.2362   Anisotropy =    44.0350

      2  C    Isotropic =   157.3417   Anisotropy =    26.7850

      3  H    Isotropic =    29.7924   Anisotropy =     8.4241

      4  H    Isotropic =    29.6503   Anisotropy =     9.1363

      5  C    Isotropic =   171.6148   Anisotropy =    19.3113

      6  H    Isotropic =    30.1525   Anisotropy =    10.4578

      7  C    Isotropic =   149.9176   Anisotropy =    21.1976

      8  H    Isotropic =    28.9703   Anisotropy =     7.1524

      9  C    Isotropic =   156.5595   Anisotropy =    26.7342

     10  H    Isotropic =    27.3536   Anisotropy =     5.3148

     11  C    Isotropic =   117.7050   Anisotropy =    35.3417

     12  H    Isotropic =    27.6152   Anisotropy =     4.1245

     13  C    Isotropic =    90.3933   Anisotropy =   120.6224

     14  C    Isotropic =    48.8264   Anisotropy =   192.2705

     15  C    Isotropic =    39.5599   Anisotropy =   128.6150

     16  C    Isotropic =    45.3166   Anisotropy =   120.9421

     17  C    Isotropic =    88.8145   Anisotropy =   101.4449

     18  C    Isotropic =    86.6768   Anisotropy =   116.0231

     19  H    Isotropic =    25.0177   Anisotropy =     8.1109

     20  H    Isotropic =    24.6183   Anisotropy =     6.8815

     21  O    Isotropic =   219.6358   Anisotropy =    37.7196

     22  H    Isotropic =    26.1965   Anisotropy =    15.5078

     23  O    Isotropic =   228.6675   Anisotropy =    84.9518

     24  H    Isotropic =    24.0772   Anisotropy =    21.4275

     25  O    Isotropic =   294.8632   Anisotropy =    28.7709

     26  H    Isotropic =    28.7683   Anisotropy =    11.0734

     27  C    Isotropic =   169.3948   Anisotropy =    42.7167

     28  H    Isotropic =    30.5906   Anisotropy =     9.7604

     29  H    Isotropic =    30.1671   Anisotropy =     8.6920

     30  H    Isotropic =    30.6598   Anisotropy =    10.6860

     31  O    Isotropic =   295.4636   Anisotropy =    59.2714

     32  H    Isotropic =    27.4144   Anisotropy =    25.5912

     33  H    Isotropic =    28.8815   Anisotropy =     6.1452

     34  C    Isotropic =    46.5153   Anisotropy =   175.5020

     35  C    Isotropic =    87.8317   Anisotropy =   119.6346

     36  H    Isotropic =    26.3509   Anisotropy =     6.0105

     37  H    Isotropic =    26.4763   Anisotropy =     8.2431

     38  C    Isotropic =   171.7274   Anisotropy =    38.8791

     39  H    Isotropic =    29.8861   Anisotropy =     8.8082

     40  H    Isotropic =    30.0376   Anisotropy =     8.7364

     41  H    Isotropic =    29.8977   Anisotropy =     5.5301

     42  C    Isotropic =   163.7630   Anisotropy =    29.7321

     43  H    Isotropic =    29.1434   Anisotropy =     7.2230

     44  H    Isotropic =    29.0967   Anisotropy =     7.3928

     45  C    Isotropic =   177.4760   Anisotropy =    29.9990

     46  H    Isotropic =    30.3016   Anisotropy =    12.1424

     47  H    Isotropic =    30.6144   Anisotropy =     7.1949

     48  H    Isotropic =    30.6132   Anisotropy =     7.3210

 Normal termination of Gaussian 09 at Fri Dec 23 14:57:14 2022.
 Gaussian 09:  EM64L-G09RevC.01 23-Sep-2011

 ----------------------------------------------------------------------
 # B3LYP/6-31+G** geom=allcheck test scrf=(pcm,solvent=water,smd,dovacu
 um)
 ----------------------------------------------------------------------

 Structure from the checkpoint file:  03_RSRS_THC_010_optB_NMR.chk
 -------
 comment
 -------
 Charge =  0 Multiplicity = 1

                         Standard orientation:
 ---------------------------------------------------------------------
 Center     Atomic      Atomic             Coordinates (Angstroms)
 Number     Number       Type             X           Y           Z
 ---------------------------------------------------------------------
      1          6           0        2.759008   -1.097621   -0.484095
      2          6           0        3.469345    0.236637   -0.739609
      3          1           0        4.241567    0.393649    0.024840
      4          1           0        3.981296    0.208783   -1.709850
      5          6           0        2.534153    1.444284   -0.732641
      6          1           0        3.155858    2.349923   -0.760077
      7          6           0        1.609491    1.510596    0.505898
      8          1           0        2.324386    1.687660    1.328071
      9          6           0        0.923211    0.149947    0.880758
     10          1           0        0.734740    0.277085    1.959531
     11          6           0        1.937597   -1.021833    0.820998
     12          1           0        2.645197   -0.873914    1.648386
     13          6           0       -0.470420   -0.200025    0.336788
     14          6           0       -3.174232   -0.723392   -0.427627
     15          6           0       -1.382794   -0.863183    1.184472
     16          6           0       -0.943438    0.102957   -0.941617
     17          6           0       -2.273036   -0.135804   -1.320256
     18          6           0       -2.712476   -1.094638    0.833851
     19          1           0       -2.613201    0.118696   -2.320843
     20          1           0       -3.371354   -1.586877    1.544826
     21          8           0       -0.085426    0.582316   -1.887427
     22          1           0       -0.613416    0.960586   -2.612603
     23          8           0       -0.986824   -1.374007    2.394229
     24          1           0       -0.115693   -1.799155    2.230534
     25          8           0        1.279335   -2.268998    1.096468
     26          1           0        1.001245   -2.606788    0.217580
     27          6           0        3.799144   -2.223443   -0.406958
     28          1           0        4.386165   -2.271778   -1.331667
     29          1           0        3.320245   -3.203108   -0.299390
     30          1           0        4.488851   -2.080230    0.431261
     31          8           0        1.906390   -1.437625   -1.581313
     32          1           0        1.293372   -0.692059   -1.744328
     33          1           0        1.978121    1.458169   -1.670596
     34          6           0        0.677499    2.728991    0.567998
     35          6           0        0.447456    3.571369   -0.454812
     36          1           0       -0.213735    4.426302   -0.343537
     37          1           0        0.896903    3.442826   -1.432494
     38          6           0        0.027071    2.992369    1.905434
     39          1           0       -0.507971    3.948165    1.922316
     40          1           0        0.784303    3.029619    2.695370
     41          1           0       -0.696153    2.209371    2.150113
     42          6           0       -4.609462   -0.957249   -0.819117
     43          1           0       -4.668528   -1.176438   -1.892189
     44          1           0       -4.993152   -1.847913   -0.306704
     45          6           0       -5.485683    0.241645   -0.490099
     46          1           0       -6.521678    0.045194   -0.783718
     47          1           0       -5.147144    1.138631   -1.019747
     48          1           0       -5.472632    0.460461    0.583065
 ---------------------------------------------------------------------

 SCF Done:  E(RB3LYP) =  -1002.54481430     A.U. after   14 cycles

 The electronic state is 1-A.
 Alpha  occ. eigenvalues --  -19.19117 -19.17328 -19.17237 -19.15809 -10.25425
 Alpha  occ. eigenvalues --  -10.24921 -10.24389 -10.23971 -10.20068 -10.19903
 Alpha  occ. eigenvalues --  -10.19768 -10.19657 -10.19620 -10.18132 -10.18109
 Alpha  occ. eigenvalues --  -10.17776 -10.17572 -10.17238 -10.17102 -10.17033
 Alpha  occ. eigenvalues --  -10.17024 -10.16953  -1.07365  -1.05730  -1.04284
 Alpha  occ. eigenvalues --   -1.02010  -0.85680  -0.83423  -0.79145  -0.79114
 Alpha  occ. eigenvalues --   -0.75581  -0.74136  -0.73261  -0.71405  -0.67940
 Alpha  occ. eigenvalues --   -0.67500  -0.64420  -0.62721  -0.60701  -0.60158
 Alpha  occ. eigenvalues --   -0.58437  -0.56667  -0.54657  -0.53340  -0.51277
 Alpha  occ. eigenvalues --   -0.50185  -0.49452  -0.48074  -0.47372  -0.46574
 Alpha  occ. eigenvalues --   -0.45755  -0.44365  -0.43872  -0.43659  -0.42931
 Alpha  occ. eigenvalues --   -0.42340  -0.41584  -0.41387  -0.40822  -0.40442
 Alpha  occ. eigenvalues --   -0.40170  -0.39269  -0.38089  -0.37959  -0.37294
 Alpha  occ. eigenvalues --   -0.36823  -0.36724  -0.35896  -0.35493  -0.34819
 Alpha  occ. eigenvalues --   -0.34423  -0.33515  -0.33183  -0.32785  -0.32314
 Alpha  occ. eigenvalues --   -0.31763  -0.30814  -0.30248  -0.28830  -0.27290
 Alpha  occ. eigenvalues --   -0.24691  -0.23135  -0.22349
 Alpha virt. eigenvalues --   -0.00991  -0.00223  -0.00025   0.00685   0.01581
 Alpha virt. eigenvalues --    0.01874   0.02213   0.02888   0.03257   0.03722
 Alpha virt. eigenvalues --    0.04109   0.04626   0.04690   0.05054   0.05454

 Mulliken atomic charges:
              1
     1  C    0.251525
     2  C   -0.534674
     3  H    0.163479
     4  H    0.160303
     5  C   -0.398173
     6  H    0.150457
     7  C   -0.086086
     8  H    0.161527
     9  C   -0.293908
    10  H    0.187434
    11  C   -0.258302
    12  H    0.162854
    13  C    1.230194
    14  C    0.149701
    15  C    0.376222
    16  C   -0.629842
    17  C   -0.803442
    18  C   -0.195116
    19  H    0.148820
    20  H    0.151024
    21  O   -0.539526
    22  H    0.465303
    23  O   -0.574119
    24  H    0.433472
    25  O   -0.539977
    26  H    0.415730
    27  C   -0.406869
    28  H    0.161954
    29  H    0.162293
    30  H    0.171051
    31  O   -0.647406
    32  H    0.427994
    33  H    0.166737
    34  C    0.449506
    35  C   -0.494982
    36  H    0.146085
    37  H    0.144055
    38  C   -0.680563
    39  H    0.156920
    40  H    0.166067
    41  H    0.174263
    42  C   -0.020836
    43  H    0.151313
    44  H    0.152118
    45  C   -0.603111
    46  H    0.152515
    47  H    0.157987
    48  H    0.158027
 Sum of Mulliken atomic charges =   0.00000

 Dipole moment (field-independent basis, Debye):
    X=              0.4365    Y=              2.9864    Z=             -2.7443  Tot=              4.0792
 Quadrupole moment (field-independent basis, Debye-Ang):
   XX=           -122.4937   YY=           -142.2399   ZZ=           -135.0326
   XY=              2.3059   XZ=             13.3335   YZ=             -1.0799

 Normal termination of Gaussian 09 at Fri Dec 23 15:28:37 2022.
