 Gaussian 09, Revision C.01,

 ------------------------------------------------
 # mPW1PW91/6-31+G** scrf=(PCM,solvent=water) nmr
 ------------------------------------------------

 99/9=1/99;
 -------
 comment
 -------
 Charge =  0 Multiplicity = 1

 SCF Done:  E(RmPW1PW91) =  -1002.30685964     A.U. after   14 cycles

      1  C    Isotropic =   123.9233   Anisotropy =    47.9615

      2  C    Isotropic =   159.2621   Anisotropy =    23.0479

      3  H    Isotropic =    29.7680   Anisotropy =     8.5766

      4  H    Isotropic =    29.5428   Anisotropy =     9.1413

      5  C    Isotropic =   170.9752   Anisotropy =    16.5508

      6  H    Isotropic =    30.1732   Anisotropy =    10.4520

      7  C    Isotropic =   150.0624   Anisotropy =    22.0136

      8  H    Isotropic =    28.8472   Anisotropy =     7.4250

      9  C    Isotropic =   157.7433   Anisotropy =    30.4244

     10  H    Isotropic =    27.2680   Anisotropy =     6.4678

     11  C    Isotropic =   118.8715   Anisotropy =    29.7331

     12  H    Isotropic =    27.3296   Anisotropy =     4.4501

     13  C    Isotropic =    90.6841   Anisotropy =   118.5334

     14  C    Isotropic =    50.9138   Anisotropy =   190.5320

     15  C    Isotropic =    43.5370   Anisotropy =   125.0431

     16  C    Isotropic =    41.4266   Anisotropy =   129.9579

     17  C    Isotropic =    82.3256   Anisotropy =   110.0089

     18  C    Isotropic =    91.5963   Anisotropy =    99.3442

     19  H    Isotropic =    24.8262   Anisotropy =     8.1841

     20  H    Isotropic =    25.0450   Anisotropy =     6.9635

     21  O    Isotropic =   216.1417   Anisotropy =    80.7950

     22  H    Isotropic =    22.3618   Anisotropy =    29.0321

     23  O    Isotropic =   229.2392   Anisotropy =    45.8977

     24  H    Isotropic =    26.3332   Anisotropy =    16.1571

     25  O    Isotropic =   290.4877   Anisotropy =    43.2336

     26  H    Isotropic =    28.9676   Anisotropy =    20.0743

     27  C    Isotropic =   167.7260   Anisotropy =    45.6849

     28  H    Isotropic =    30.4331   Anisotropy =     9.4096

     29  H    Isotropic =    30.0818   Anisotropy =     8.5657

     30  H    Isotropic =    30.4996   Anisotropy =    11.0446

     31  O    Isotropic =   277.1304   Anisotropy =    30.9777

     32  H    Isotropic =    28.5973   Anisotropy =    12.9570

     33  H    Isotropic =    28.9473   Anisotropy =     6.0825

     34  C    Isotropic =    45.7395   Anisotropy =   178.3854

     35  C    Isotropic =    87.4735   Anisotropy =   119.8777

     36  H    Isotropic =    26.4947   Anisotropy =     5.3451

     37  H    Isotropic =    26.4885   Anisotropy =     8.0588

     38  C    Isotropic =   171.3319   Anisotropy =    39.6442

     39  H    Isotropic =    29.7753   Anisotropy =     5.5066

     40  H    Isotropic =    29.8836   Anisotropy =     8.7793

     41  H    Isotropic =    30.0441   Anisotropy =     9.0274

     42  C    Isotropic =   163.9235   Anisotropy =    29.6979

     43  H    Isotropic =    29.1336   Anisotropy =     7.0538

     44  H    Isotropic =    29.2230   Anisotropy =     7.6704

     45  C    Isotropic =   177.2479   Anisotropy =    27.7251

     46  H    Isotropic =    30.3356   Anisotropy =    12.0637

     47  H    Isotropic =    30.6544   Anisotropy =     7.1793

     48  H    Isotropic =    30.6220   Anisotropy =     7.2340

 Normal termination of Gaussian 09 at Fri Dec 23 14:57:32 2022.
 Gaussian 09:  EM64L-G09RevC.01 23-Sep-2011

 ----------------------------------------------------------------------
 # B3LYP/6-31+G** geom=allcheck test scrf=(pcm,solvent=water,smd,dovacu
 um)
 ----------------------------------------------------------------------

 Structure from the checkpoint file:  03_RSRS_THC_004_optB_NMR.chk
 -------
 comment
 -------
 Charge =  0 Multiplicity = 1

                         Standard orientation:
 ---------------------------------------------------------------------
 Center     Atomic      Atomic             Coordinates (Angstroms)
 Number     Number       Type             X           Y           Z
 ---------------------------------------------------------------------
      1          6           0        2.813787   -1.065579   -0.373025
      2          6           0        3.461609    0.263007   -0.777314
      3          1           0        4.221622    0.542315   -0.036050
      4          1           0        3.978840    0.150166   -1.738610
      5          6           0        2.466413    1.414386   -0.911505
      6          1           0        3.037813    2.340938   -1.060422
      7          6           0        1.561574    1.578209    0.327159
      8          1           0        2.281882    1.873831    1.109350
      9          6           0        0.934826    0.244080    0.855984
     10          1           0        0.770254    0.482525    1.917814
     11          6           0        1.984476   -0.900050    0.916179
     12          1           0        2.681723   -0.663588    1.731749
     13          6           0       -0.456418   -0.179253    0.360093
     14          6           0       -3.152071   -0.816279   -0.356028
     15          6           0       -1.416271   -0.586199    1.313818
     16          6           0       -0.886372   -0.179663   -0.970892
     17          6           0       -2.211243   -0.461118   -1.324035
     18          6           0       -2.739660   -0.889664    0.974142
     19          1           0       -2.494084   -0.417491   -2.373864
     20          1           0       -3.453437   -1.188676    1.736335
     21          8           0       -0.060565    0.047426   -2.030368
     22          1           0        0.753788   -0.480915   -1.876575
     23          8           0       -1.029487   -0.726618    2.625226
     24          1           0       -1.825688   -0.875572    3.163948
     25          8           0        1.385199   -2.159644    1.255111
     26          1           0        0.708402   -1.974135    1.936505
     27          6           0        3.898343   -2.139181   -0.209893
     28          1           0        4.468553   -2.256253   -1.138799
     29          1           0        3.462417   -3.121192    0.004705
     30          1           0        4.596670   -1.886623    0.594605
     31          8           0        1.942118   -1.510926   -1.422544
     32          1           0        1.518294   -2.320102   -1.058495
     33          1           0        1.896102    1.285748   -1.831791
     34          6           0        0.573772    2.748388    0.269032
     35          6           0        0.152505    3.333907   -0.865313
     36          1           0       -0.549660    4.162100   -0.850174
     37          1           0        0.461066    2.992612   -1.847713
     38          6           0        0.082514    3.259354    1.600655
     39          1           0       -0.503919    2.495039    2.118758
     40          1           0       -0.554342    4.144173    1.493651
     41          1           0        0.928965    3.540678    2.235524
     42          6           0       -4.577890   -1.107038   -0.743068
     43          1           0       -4.606353   -1.548359   -1.746809
     44          1           0       -4.997206   -1.863080   -0.068075
     45          6           0       -5.438534    0.146572   -0.708294
     46          1           0       -6.467907   -0.093064   -0.993003
     47          1           0       -5.062506    0.906042   -1.402219
     48          1           0       -5.457568    0.587712    0.294080
 ---------------------------------------------------------------------

 SCF Done:  E(RB3LYP) =  -1002.54599219     A.U. after   14 cycles

 The electronic state is 1-A.
 Alpha  occ. eigenvalues --  -19.19075 -19.17531 -19.16457 -19.15974 -10.25480
 Alpha  occ. eigenvalues --  -10.24802 -10.24556 -10.23963 -10.19953 -10.19836
 Alpha  occ. eigenvalues --  -10.19606 -10.19495 -10.19485 -10.18080 -10.18012
 Alpha  occ. eigenvalues --  -10.17970 -10.17437 -10.17249 -10.17149 -10.17082
 Alpha  occ. eigenvalues --  -10.17081 -10.16941  -1.06748  -1.05819  -1.04235
 Alpha  occ. eigenvalues --   -1.02339  -0.85498  -0.83536  -0.79392  -0.79027
 Alpha  occ. eigenvalues --   -0.75470  -0.74127  -0.72994  -0.71307  -0.67988
 Alpha  occ. eigenvalues --   -0.67517  -0.64591  -0.62016  -0.61453  -0.60232
 Alpha  occ. eigenvalues --   -0.58595  -0.56295  -0.54140  -0.52409  -0.51339
 Alpha  occ. eigenvalues --   -0.50525  -0.49449  -0.48491  -0.47197  -0.46503
 Alpha  occ. eigenvalues --   -0.45529  -0.45241  -0.43490  -0.43366  -0.42574
 Alpha  occ. eigenvalues --   -0.42230  -0.42055  -0.41524  -0.40748  -0.40304
 Alpha  occ. eigenvalues --   -0.39814  -0.39048  -0.38765  -0.38053  -0.37455
 Alpha  occ. eigenvalues --   -0.37039  -0.36645  -0.35949  -0.35627  -0.35015
 Alpha  occ. eigenvalues --   -0.34777  -0.34186  -0.33115  -0.32540  -0.31916
 Alpha  occ. eigenvalues --   -0.31556  -0.30144  -0.29731  -0.28571  -0.28125
 Alpha  occ. eigenvalues --   -0.24663  -0.23029  -0.22007
 Alpha virt. eigenvalues --   -0.00744  -0.00136   0.00158   0.00515   0.01635
 Alpha virt. eigenvalues --    0.01751   0.02163   0.02930   0.03325   0.03449
 Alpha virt. eigenvalues --    0.04055   0.04574   0.04733   0.05192   0.05349

 Mulliken atomic charges:
              1
     1  C    0.332885
     2  C   -0.474193
     3  H    0.171737
     4  H    0.162775
     5  C   -0.329026
     6  H    0.150794
     7  C    0.016486
     8  H    0.156078
     9  C   -0.427960
    10  H    0.176980
    11  C   -0.125393
    12  H    0.153368
    13  C    1.403451
    14  C    0.079588
    15  C    0.221320
    16  C   -0.704629
    17  C   -0.758879
    18  C   -0.213585
    19  H    0.146478
    20  H    0.150433
    21  O   -0.568256
    22  H    0.475269
    23  O   -0.573569
    24  H    0.448651
    25  O   -0.592413
    26  H    0.415583
    27  C   -0.597010
    28  H    0.164199
    29  H    0.163873
    30  H    0.169389
    31  O   -0.581829
    32  H    0.420368
    33  H    0.157906
    34  C    0.504042
    35  C   -0.533212
    36  H    0.146227
    37  H    0.143178
    38  C   -0.668844
    39  H    0.173246
    40  H    0.156737
    41  H    0.166417
    42  C   -0.045453
    43  H    0.151511
    44  H    0.151128
    45  C   -0.603496
    46  H    0.152132
    47  H    0.157846
    48  H    0.157674
 Sum of Mulliken atomic charges =   0.00000

 Dipole moment (field-independent basis, Debye):
    X=             -0.1844    Y=             -0.7066    Z=              5.5093  Tot=              5.5575
 Quadrupole moment (field-independent basis, Debye-Ang):
   XX=           -114.3439   YY=           -139.5372   ZZ=           -131.7582
   XY=              6.4941   XZ=             -4.9679   YZ=              1.6745

 Normal termination of Gaussian 09 at Fri Dec 23 15:28:19 2022.
