 Gaussian 09, Revision C.01,

 ------------------------------------------------
 # mPW1PW91/6-31+G** scrf=(PCM,solvent=water) nmr
 ------------------------------------------------

 99/9=1/99;
 -------
 comment
 -------
 Charge =  0 Multiplicity = 1

 SCF Done:  E(RmPW1PW91) =  -1002.30494399     A.U. after   14 cycles

      1  C    Isotropic =   122.8295   Anisotropy =    41.1391

      2  C    Isotropic =   164.0806   Anisotropy =    33.5577

      3  H    Isotropic =    29.9873   Anisotropy =     9.6122

      4  H    Isotropic =    29.7126   Anisotropy =     6.0125

      5  C    Isotropic =   169.6881   Anisotropy =    20.3511

      6  H    Isotropic =    29.3414   Anisotropy =     7.4863

      7  C    Isotropic =   149.0902   Anisotropy =    20.3964

      8  H    Isotropic =    28.2097   Anisotropy =     6.8503

      9  C    Isotropic =   148.9362   Anisotropy =    29.2618

     10  H    Isotropic =    27.9530   Anisotropy =     5.1319

     11  C    Isotropic =   122.0209   Anisotropy =    34.6232

     12  H    Isotropic =    26.4629   Anisotropy =     3.3370

     13  C    Isotropic =    87.9640   Anisotropy =   123.2108

     14  C    Isotropic =    50.2598   Anisotropy =   188.8315

     15  C    Isotropic =    44.2566   Anisotropy =   118.8556

     16  C    Isotropic =    43.8779   Anisotropy =   123.4358

     17  C    Isotropic =    90.4413   Anisotropy =   100.4058

     18  C    Isotropic =    90.2418   Anisotropy =    97.9547

     19  H    Isotropic =    25.0908   Anisotropy =     7.4081

     20  H    Isotropic =    25.2327   Anisotropy =     7.7649

     21  O    Isotropic =   224.1870   Anisotropy =    49.8563

     22  H    Isotropic =    26.5076   Anisotropy =    15.4334

     23  O    Isotropic =   226.9852   Anisotropy =    42.5129

     24  H    Isotropic =    26.4832   Anisotropy =    15.7435

     25  O    Isotropic =   291.4959   Anisotropy =    29.7950

     26  H    Isotropic =    28.5949   Anisotropy =    18.9425

     27  C    Isotropic =   167.1720   Anisotropy =    46.4846

     28  H    Isotropic =    30.6324   Anisotropy =     9.6321

     29  H    Isotropic =    29.8222   Anisotropy =     8.4624

     30  H    Isotropic =    30.5026   Anisotropy =     9.2616

     31  O    Isotropic =   285.7151   Anisotropy =    30.9109

     32  H    Isotropic =    28.8281   Anisotropy =    14.4186

     33  H    Isotropic =    30.2132   Anisotropy =     9.9966

     34  C    Isotropic =    46.5775   Anisotropy =   171.9220

     35  C    Isotropic =    86.7717   Anisotropy =   111.7546

     36  H    Isotropic =    26.4238   Anisotropy =     4.4499

     37  H    Isotropic =    26.2560   Anisotropy =     4.8070

     38  C    Isotropic =   168.9337   Anisotropy =    44.0613

     39  H    Isotropic =    30.1527   Anisotropy =     7.4431

     40  H    Isotropic =    29.9920   Anisotropy =     8.6384

     41  H    Isotropic =    29.5948   Anisotropy =     7.9841

     42  C    Isotropic =   164.4239   Anisotropy =    29.7954

     43  H    Isotropic =    29.2942   Anisotropy =     7.3574

     44  H    Isotropic =    29.2720   Anisotropy =     7.2874

     45  C    Isotropic =   177.0246   Anisotropy =    29.9210

     46  H    Isotropic =    30.2999   Anisotropy =    12.0300

     47  H    Isotropic =    30.6217   Anisotropy =     7.4744

     48  H    Isotropic =    30.6066   Anisotropy =     7.4573

 Normal termination of Gaussian 09 at Fri Dec 23 15:13:49 2022.
 Gaussian 09:  EM64L-G09RevC.01 23-Sep-2011

 ----------------------------------------------------------------------
 # B3LYP/6-31+G** geom=allcheck test scrf=(pcm,solvent=water,smd,dovacu
 um)
 ----------------------------------------------------------------------

 Structure from the checkpoint file:  04_RSSR_THC_003_optB_NMR.chk
 -------
 comment
 -------
 Charge =  0 Multiplicity = 1

                         Standard orientation:
 ---------------------------------------------------------------------
 Center     Atomic      Atomic             Coordinates (Angstroms)
 Number     Number       Type             X           Y           Z
 ---------------------------------------------------------------------
      1          6           0       -3.107981   -1.091270   -0.202280
      2          6           0       -3.671192    0.326255   -0.080159
      3          1           0       -4.689204    0.358303   -0.488757
      4          1           0       -3.737640    0.620615    0.974039
      5          6           0       -2.826056    1.339643   -0.846349
      6          1           0       -2.863013    1.101243   -1.917609
      7          6           0       -1.350522    1.358877   -0.394565
      8          1           0       -0.828783    1.954982   -1.155804
      9          6           0       -0.742255   -0.086054   -0.489369
     10          1           0       -0.817493   -0.376881   -1.550177
     11          6           0       -1.619785   -1.151482    0.227676
     12          1           0       -1.587150   -1.054382    1.313619
     13          6           0        0.778396   -0.092447   -0.237697
     14          6           0        3.610882    0.031964    0.113413
     15          6           0        1.406325   -0.644790    0.888433
     16          6           0        1.628519    0.493917   -1.198996
     17          6           0        3.015740    0.561764   -1.032113
     18          6           0        2.795763   -0.582923    1.067262
     19          1           0        3.639816    1.022844   -1.792695
     20          1           0        3.256753   -1.025060    1.946944
     21          8           0        1.083161    1.001060   -2.349970
     22          1           0        1.793697    1.329183   -2.923839
     23          8           0        0.672344   -1.300345    1.837707
     24          1           0        1.239591   -1.476784    2.607703
     25          8           0       -1.141390   -2.473085   -0.104135
     26          1           0       -0.258558   -2.528013    0.310751
     27          6           0       -3.962412   -2.067979    0.614699
     28          1           0       -3.932766   -1.831391    1.683235
     29          1           0       -3.627413   -3.102194    0.478321
     30          1           0       -5.006899   -2.039518    0.283204
     31          8           0       -3.207556   -1.507993   -1.573851
     32          1           0       -2.598618   -2.273015   -1.640520
     33          1           0       -3.282651    2.331355   -0.748930
     34          6           0       -1.190504    2.174660    0.898259
     35          6           0       -1.042883    1.687972    2.140967
     36          1           0       -0.920307    2.351009    2.993088
     37          1           0       -1.032570    0.633505    2.370995
     38          6           0       -1.166156    3.673696    0.695554
     39          1           0       -0.345419    3.952175    0.026195
     40          1           0       -1.019880    4.217454    1.635222
     41          1           0       -2.106342    4.023563    0.259445
     42          6           0        5.105638    0.083199    0.296825
     43          1           0        5.503652    0.993020   -0.168903
     44          1           0        5.343745    0.160989    1.364689
     45          6           0        5.790841   -1.139048   -0.294928
     46          1           0        6.873481   -1.074479   -0.147214
     47          1           0        5.599317   -1.220266   -1.370289
     48          1           0        5.438032   -2.061070    0.179498
 ---------------------------------------------------------------------

 SCF Done:  E(RB3LYP) =  -1002.54650793     A.U. after   14 cycles

 The electronic state is 1-A.
 Alpha  occ. eigenvalues --  -19.18898 -19.18756 -19.16260 -19.15545 -10.25599
 Alpha  occ. eigenvalues --  -10.25591 -10.24192 -10.23526 -10.19927 -10.19843
 Alpha  occ. eigenvalues --  -10.19826 -10.19681 -10.19065 -10.18168 -10.18025
 Alpha  occ. eigenvalues --  -10.17995 -10.17528 -10.17473 -10.17228 -10.17116
 Alpha  occ. eigenvalues --  -10.16694 -10.16683  -1.06971  -1.06490  -1.03985
 Alpha  occ. eigenvalues --   -1.01304  -0.85742  -0.83392  -0.79269  -0.78728
 Alpha  occ. eigenvalues --   -0.75340  -0.73881  -0.73201  -0.71186  -0.67846
 Alpha  occ. eigenvalues --   -0.67395  -0.64255  -0.63747  -0.60949  -0.59768
 Alpha  occ. eigenvalues --   -0.57404  -0.55904  -0.55404  -0.52999  -0.51597
 Alpha  occ. eigenvalues --   -0.50590  -0.49320  -0.48263  -0.46853  -0.45436
 Alpha  occ. eigenvalues --   -0.45215  -0.44751  -0.43249  -0.42967  -0.42699
 Alpha  occ. eigenvalues --   -0.42413  -0.42128  -0.41193  -0.40402  -0.39996
 Alpha  occ. eigenvalues --   -0.39693  -0.38903  -0.38701  -0.38002  -0.37731
 Alpha  occ. eigenvalues --   -0.37132  -0.36800  -0.36433  -0.35985  -0.35249
 Alpha  occ. eigenvalues --   -0.34761  -0.33868  -0.33151  -0.33021  -0.32119
 Alpha  occ. eigenvalues --   -0.31131  -0.30722  -0.29953  -0.28260  -0.26933
 Alpha  occ. eigenvalues --   -0.24551  -0.22950  -0.22131
 Alpha virt. eigenvalues --   -0.00563  -0.00084   0.00102   0.00605   0.01517
 Alpha virt. eigenvalues --    0.01745   0.02093   0.02794   0.03241   0.03734
 Alpha virt. eigenvalues --    0.03845   0.04447   0.04760   0.04902   0.05364

 Mulliken atomic charges:
              1
     1  C    0.411085
     2  C   -0.311254
     3  H    0.156714
     4  H    0.166787
     5  C   -0.554469
     6  H    0.156701
     7  C    0.297462
     8  H    0.146603
     9  C    0.003958
    10  H    0.160748
    11  C    0.061222
    12  H    0.157826
    13  C    0.637402
    14  C    0.021694
    15  C   -0.464517
    16  C    0.256408
    17  C   -0.044490
    18  C   -0.940389
    19  H    0.150376
    20  H    0.148690
    21  O   -0.598832
    22  H    0.447966
    23  O   -0.623087
    24  H    0.459835
    25  O   -0.690281
    26  H    0.425782
    27  C   -0.341970
    28  H    0.161184
    29  H    0.160051
    30  H    0.161073
    31  O   -0.637266
    32  H    0.404620
    33  H    0.147632
    34  C    0.365128
    35  C   -0.691847
    36  H    0.142198
    37  H    0.143689
    38  C   -0.618405
    39  H    0.166560
    40  H    0.158725
    41  H    0.169438
    42  C   -0.103684
    43  H    0.151985
    44  H    0.151935
    45  C   -0.598260
    46  H    0.152334
    47  H    0.157559
    48  H    0.157378
 Sum of Mulliken atomic charges =   0.00000

 Dipole moment (field-independent basis, Debye):
    X=              6.4837    Y=              1.9817    Z=              2.8249  Tot=              7.3448
 Quadrupole moment (field-independent basis, Debye-Ang):
   XX=           -126.6544   YY=           -134.9632   ZZ=           -126.4307
   XY=             -6.5987   XZ=             -8.0981   YZ=            -11.6579

 Normal termination of Gaussian 09 at Fri Dec 23 15:47:38 2022.
