 Gaussian 09, Revision C.01,

 ------------------------------------------------
 # mPW1PW91/6-31+G** scrf=(PCM,solvent=water) nmr
 ------------------------------------------------

 99/9=1/99;
 -------
 comment
 -------
 Charge =  0 Multiplicity = 1

 SCF Done:  E(RmPW1PW91) =  -1002.30211031     A.U. after   14 cycles

      1  C    Isotropic =   122.1372   Anisotropy =    39.3437

      2  C    Isotropic =   158.3972   Anisotropy =    27.9987

      3  H    Isotropic =    30.0906   Anisotropy =     8.9277

      4  H    Isotropic =    29.4961   Anisotropy =     6.1878

      5  C    Isotropic =   163.4466   Anisotropy =    30.8279

      6  H    Isotropic =    29.1238   Anisotropy =     7.4985

      7  C    Isotropic =   150.6183   Anisotropy =    25.0579

      8  H    Isotropic =    27.6978   Anisotropy =     7.5980

      9  C    Isotropic =   149.9348   Anisotropy =    27.9312

     10  H    Isotropic =    28.0506   Anisotropy =     4.5756

     11  C    Isotropic =   121.7321   Anisotropy =    40.4183

     12  H    Isotropic =    26.5220   Anisotropy =     2.5272

     13  C    Isotropic =    82.7296   Anisotropy =   127.9757

     14  C    Isotropic =    50.2496   Anisotropy =   189.3608

     15  C    Isotropic =    44.4339   Anisotropy =   122.0048

     16  C    Isotropic =    42.7473   Anisotropy =   120.5743

     17  C    Isotropic =    84.9466   Anisotropy =   111.1584

     18  C    Isotropic =    90.1581   Anisotropy =    97.8773

     19  H    Isotropic =    24.7836   Anisotropy =     7.9094

     20  H    Isotropic =    25.1730   Anisotropy =     7.4249

     21  O    Isotropic =   238.1835   Anisotropy =    62.8442

     22  H    Isotropic =    23.4554   Anisotropy =    24.4056

     23  O    Isotropic =   223.2055   Anisotropy =    39.6713

     24  H    Isotropic =    26.6966   Anisotropy =    15.6557

     25  O    Isotropic =   288.0696   Anisotropy =    48.3596

     26  H    Isotropic =    28.3047   Anisotropy =    15.1183

     27  C    Isotropic =   167.3826   Anisotropy =    46.2523

     28  H    Isotropic =    30.4148   Anisotropy =     9.7158

     29  H    Isotropic =    29.6103   Anisotropy =     8.1225

     30  H    Isotropic =    30.6592   Anisotropy =     9.1925

     31  O    Isotropic =   272.0960   Anisotropy =    77.8960

     32  H    Isotropic =    30.6448   Anisotropy =    18.0641

     33  H    Isotropic =    30.1602   Anisotropy =     9.1020

     34  C    Isotropic =    42.5764   Anisotropy =   184.7502

     35  C    Isotropic =    84.6825   Anisotropy =    94.8662

     36  H    Isotropic =    26.7212   Anisotropy =     6.9461

     37  H    Isotropic =    26.7718   Anisotropy =     7.8997

     38  C    Isotropic =   171.1313   Anisotropy =    29.2096

     39  H    Isotropic =    29.8121   Anisotropy =     5.5697

     40  H    Isotropic =    29.8120   Anisotropy =     9.0345

     41  H    Isotropic =    29.6721   Anisotropy =     5.9604

     42  C    Isotropic =   164.9897   Anisotropy =    28.1415

     43  H    Isotropic =    29.2270   Anisotropy =     7.2579

     44  H    Isotropic =    29.1960   Anisotropy =     7.3530

     45  C    Isotropic =   177.0646   Anisotropy =    30.1560

     46  H    Isotropic =    30.2954   Anisotropy =    12.0115

     47  H    Isotropic =    30.6061   Anisotropy =     7.4965

     48  H    Isotropic =    30.5961   Anisotropy =     7.3844

 Normal termination of Gaussian 09 at Fri Dec 23 15:12:00 2022.
 Gaussian 09:  EM64L-G09RevC.01 23-Sep-2011

 ----------------------------------------------------------------------
 # B3LYP/6-31+G** geom=allcheck test scrf=(pcm,solvent=water,smd,dovacu
 um)
 ----------------------------------------------------------------------

 Structure from the checkpoint file:  04_RSSR_THC_008_optB_NMR.chk
 -------
 comment
 -------
 Charge =  0 Multiplicity = 1

                         Standard orientation:
 ---------------------------------------------------------------------
 Center     Atomic      Atomic             Coordinates (Angstroms)
 Number     Number       Type             X           Y           Z
 ---------------------------------------------------------------------
      1          6           0       -3.161955   -0.925689   -0.226947
      2          6           0       -3.684990    0.501891   -0.052191
      3          1           0       -4.688523    0.586660   -0.488919
      4          1           0       -3.790136    0.742192    1.010140
      5          6           0       -2.792771    1.534256   -0.730696
      6          1           0       -2.887228    1.406019   -1.817802
      7          6           0       -1.295633    1.440424   -0.366324
      8          1           0       -0.813097    2.030851   -1.156968
      9          6           0       -0.753738   -0.023402   -0.529449
     10          1           0       -0.854421   -0.279905   -1.596361
     11          6           0       -1.677928   -1.035320    0.200516
     12          1           0       -1.619783   -0.911205    1.284782
     13          6           0        0.765478   -0.122875   -0.285215
     14          6           0        3.593624   -0.053534    0.150274
     15          6           0        1.641642    0.578870   -1.140361
     16          6           0        1.378201   -0.858152    0.741454
     17          6           0        2.757062   -0.806701    0.974785
     18          6           0        3.025728    0.623481   -0.929482
     19          1           0        3.172623   -1.383730    1.798075
     20          1           0        3.668950    1.182370   -1.603116
     21          8           0        0.701926   -1.715314    1.563784
     22          1           0        0.096136   -2.227865    0.981971
     23          8           0        1.130518    1.222028   -2.238996
     24          1           0        1.859019    1.644631   -2.721529
     25          8           0       -1.222111   -2.375445   -0.094392
     26          1           0       -1.540238   -2.540690   -1.008410
     27          6           0       -4.038674   -1.910228    0.556394
     28          1           0       -3.987749   -1.723593    1.633989
     29          1           0       -3.740753   -2.947413    0.367348
     30          1           0       -5.086086   -1.831834    0.242700
     31          8           0       -3.241936   -1.301015   -1.613375
     32          1           0       -4.171492   -1.213719   -1.891070
     33          1           0       -3.177016    2.539565   -0.516257
     34          6           0       -0.970366    2.185693    0.936709
     35          6           0       -0.468327    3.434423    0.885337
     36          1           0       -0.212895    3.985909    1.785214
     37          1           0       -0.286918    3.938352   -0.059288
     38          6           0       -1.180940    1.538058    2.275986
     39          1           0       -2.207885    1.189583    2.395189
     40          1           0       -0.992266    2.236493    3.099589
     41          1           0       -0.498808    0.697426    2.417201
     42          6           0        5.079770   -0.020868    0.389767
     43          1           0        5.481992    0.950494    0.077098
     44          1           0        5.282154   -0.100358    1.464866
     45          6           0        5.798455   -1.137405   -0.352199
     46          1           0        6.874798   -1.088103   -0.159426
     47          1           0        5.643561   -1.059839   -1.433712
     48          1           0        5.441058   -2.121869   -0.031607
 ---------------------------------------------------------------------

 SCF Done:  E(RB3LYP) =  -1002.54214528     A.U. after   14 cycles

 The electronic state is 1-A.
 Alpha  occ. eigenvalues --  -19.18662 -19.17301 -19.16856 -19.16191 -10.25451
 Alpha  occ. eigenvalues --  -10.24796 -10.24668 -10.24277 -10.20169 -10.19757
 Alpha  occ. eigenvalues --  -10.19725 -10.19561 -10.18940 -10.18070 -10.17994
 Alpha  occ. eigenvalues --  -10.17534 -10.17496 -10.17493 -10.17100 -10.17070
 Alpha  occ. eigenvalues --  -10.16963 -10.16889  -1.06446  -1.05909  -1.04335
 Alpha  occ. eigenvalues --   -1.02063  -0.85532  -0.83506  -0.79045  -0.78920
 Alpha  occ. eigenvalues --   -0.75431  -0.74158  -0.73052  -0.71141  -0.68716
 Alpha  occ. eigenvalues --   -0.66991  -0.64328  -0.62086  -0.61038  -0.60491
 Alpha  occ. eigenvalues --   -0.58716  -0.57898  -0.53773  -0.51970  -0.51089
 Alpha  occ. eigenvalues --   -0.49750  -0.49124  -0.47922  -0.47668  -0.46044
 Alpha  occ. eigenvalues --   -0.45130  -0.44822  -0.44336  -0.43206  -0.42715
 Alpha  occ. eigenvalues --   -0.42364  -0.41778  -0.41406  -0.40798  -0.40640
 Alpha  occ. eigenvalues --   -0.40163  -0.39388  -0.38549  -0.37744  -0.37295
 Alpha  occ. eigenvalues --   -0.36875  -0.36395  -0.36186  -0.35546  -0.35000
 Alpha  occ. eigenvalues --   -0.34583  -0.34120  -0.33335  -0.33093  -0.32594
 Alpha  occ. eigenvalues --   -0.31254  -0.30736  -0.29769  -0.28579  -0.27299
 Alpha  occ. eigenvalues --   -0.24395  -0.22926  -0.21988
 Alpha virt. eigenvalues --   -0.00544   0.00028   0.00296   0.00391   0.01418
 Alpha virt. eigenvalues --    0.01800   0.02003   0.02691   0.03375   0.03587
 Alpha virt. eigenvalues --    0.04210   0.04445   0.04670   0.05004   0.05273

 Mulliken atomic charges:
              1
     1  C    0.213121
     2  C   -0.352753
     3  H    0.157937
     4  H    0.162794
     5  C   -0.417780
     6  H    0.156281
     7  C    0.051682
     8  H    0.145930
     9  C    0.068030
    10  H    0.166707
    11  C   -0.036016
    12  H    0.187943
    13  C    0.456627
    14  C    0.025149
    15  C    0.324010
    16  C   -0.295530
    17  C   -0.826147
    18  C    0.003078
    19  H    0.147387
    20  H    0.149754
    21  O   -0.626871
    22  H    0.450963
    23  O   -0.608469
    24  H    0.448121
    25  O   -0.653639
    26  H    0.417777
    27  C   -0.293042
    28  H    0.166680
    29  H    0.164626
    30  H    0.163610
    31  O   -0.680965
    32  H    0.419742
    33  H    0.150595
    34  C    0.387742
    35  C   -0.558490
    36  H    0.147382
    37  H    0.141591
    38  C   -0.709472
    39  H    0.169647
    40  H    0.153305
    41  H    0.179412
    42  C   -0.095486
    43  H    0.151026
    44  H    0.151748
    45  C   -0.591948
    46  H    0.151676
    47  H    0.157347
    48  H    0.157187
 Sum of Mulliken atomic charges =   0.00000

 Dipole moment (field-independent basis, Debye):
    X=             -2.9310    Y=              1.8820    Z=             -2.7247  Tot=              4.4223
 Quadrupole moment (field-independent basis, Debye-Ang):
   XX=           -101.8484   YY=           -140.8022   ZZ=           -133.2202
   XY=              7.8321   XZ=             -4.7340   YZ=             -0.6347

 Normal termination of Gaussian 09 at Fri Dec 23 15:47:27 2022.
