 Gaussian 09, Revision C.01,

 ------------------------------------------------
 # mPW1PW91/6-31+G** scrf=(PCM,solvent=water) nmr
 ------------------------------------------------

 99/9=1/99;
 -------
 comment
 -------
 Charge =  0 Multiplicity = 1

 SCF Done:  E(RmPW1PW91) =  -1002.30527176     A.U. after   14 cycles

      1  C    Isotropic =   122.9429   Anisotropy =    43.1986

      2  C    Isotropic =   160.7755   Anisotropy =    24.8864

      3  H    Isotropic =    29.8270   Anisotropy =     9.1929

      4  H    Isotropic =    29.4668   Anisotropy =     6.2704

      5  C    Isotropic =   167.8009   Anisotropy =    23.0584

      6  H    Isotropic =    29.1809   Anisotropy =     8.2951

      7  C    Isotropic =   149.4314   Anisotropy =    21.3553

      8  H    Isotropic =    28.0629   Anisotropy =     6.0615

      9  C    Isotropic =   149.4709   Anisotropy =    31.4222

     10  H    Isotropic =    27.7977   Anisotropy =     6.2556

     11  C    Isotropic =   121.5988   Anisotropy =    37.3570

     12  H    Isotropic =    26.4170   Anisotropy =     3.8536

     13  C    Isotropic =    90.7667   Anisotropy =   118.9827

     14  C    Isotropic =    50.2223   Anisotropy =   189.7443

     15  C    Isotropic =    42.4316   Anisotropy =   126.8826

     16  C    Isotropic =    43.6005   Anisotropy =   120.8185

     17  C    Isotropic =    89.0766   Anisotropy =    97.8817

     18  C    Isotropic =    90.5939   Anisotropy =    99.4479

     19  H    Isotropic =    25.1571   Anisotropy =     7.8052

     20  H    Isotropic =    25.0933   Anisotropy =     7.2432

     21  O    Isotropic =   229.8168   Anisotropy =    54.0509

     22  H    Isotropic =    26.4463   Anisotropy =    15.2785

     23  O    Isotropic =   228.3221   Anisotropy =    57.0842

     24  H    Isotropic =    26.4729   Anisotropy =    15.3300

     25  O    Isotropic =   291.7423   Anisotropy =    20.9650

     26  H    Isotropic =    29.4068   Anisotropy =    17.7790

     27  C    Isotropic =   166.6165   Anisotropy =    46.5198

     28  H    Isotropic =    30.5958   Anisotropy =     9.6556

     29  H    Isotropic =    29.8353   Anisotropy =     8.3117

     30  H    Isotropic =    30.4931   Anisotropy =     9.1205

     31  O    Isotropic =   288.2292   Anisotropy =    35.0809

     32  H    Isotropic =    28.9736   Anisotropy =    14.3764

     33  H    Isotropic =    30.1115   Anisotropy =     9.4610

     34  C    Isotropic =    42.5777   Anisotropy =   180.5789

     35  C    Isotropic =    84.4685   Anisotropy =    96.4815

     36  H    Isotropic =    26.8011   Anisotropy =     6.0967

     37  H    Isotropic =    27.0629   Anisotropy =     7.7838

     38  C    Isotropic =   170.9326   Anisotropy =    27.0475

     39  H    Isotropic =    29.5921   Anisotropy =     7.4181

     40  H    Isotropic =    29.7141   Anisotropy =     8.4633

     41  H    Isotropic =    29.6077   Anisotropy =     3.6165

     42  C    Isotropic =   164.1814   Anisotropy =    28.4076

     43  H    Isotropic =    29.2393   Anisotropy =     7.2782

     44  H    Isotropic =    29.1448   Anisotropy =     7.1495

     45  C    Isotropic =   179.0817   Anisotropy =    30.5978

     46  H    Isotropic =    30.2220   Anisotropy =    12.1320

     47  H    Isotropic =    30.6342   Anisotropy =     7.4777

     48  H    Isotropic =    30.5930   Anisotropy =     7.5331

 Normal termination of Gaussian 09 at Fri Dec 23 15:14:50 2022.
 Gaussian 09:  EM64L-G09RevC.01 23-Sep-2011

 ----------------------------------------------------------------------
 # B3LYP/6-31+G** geom=allcheck test scrf=(pcm,solvent=water,smd,dovacu
 um)
 ----------------------------------------------------------------------

 Structure from the checkpoint file:  04_RSSR_THC_007_optB_NMR.chk
 -------
 comment
 -------
 Charge =  0 Multiplicity = 1

                         Standard orientation:
 ---------------------------------------------------------------------
 Center     Atomic      Atomic             Coordinates (Angstroms)
 Number     Number       Type             X           Y           Z
 ---------------------------------------------------------------------
      1          6           0        3.108545   -1.068197    0.001710
      2          6           0        3.695456    0.329483    0.212768
      3          1           0        4.692231    0.247321    0.665625
      4          1           0        3.835708    0.822583   -0.753616
      5          6           0        2.840781    1.203717    1.130952
      6          1           0        2.920197    0.801554    2.150322
      7          6           0        1.344311    1.270055    0.760753
      8          1           0        0.862957    1.628860    1.684485
      9          6           0        0.761085   -0.156741    0.510330
     10          1           0        0.858217   -0.695807    1.465671
     11          6           0        1.629142   -1.001399   -0.457725
     12          1           0        1.609706   -0.617762   -1.478959
     13          6           0       -0.754779   -0.122974    0.257208
     14          6           0       -3.581652    0.014571   -0.077312
     15          6           0       -1.629548   -0.013594    1.356030
     16          6           0       -1.344551   -0.153266   -1.014083
     17          6           0       -2.733641   -0.091911   -1.183780
     18          6           0       -3.017467    0.048796    1.199792
     19          1           0       -3.166878   -0.132590   -2.179912
     20          1           0       -3.666103    0.126805    2.067938
     21          8           0       -0.563587   -0.256043   -2.130044
     22          1           0       -1.104110   -0.049891   -2.910995
     23          8           0       -1.104484    0.038207    2.620510
     24          1           0       -1.827635    0.075378    3.266644
     25          8           0        1.134663   -2.356904   -0.490411
     26          1           0        0.238955   -2.294224   -0.872481
     27          6           0        3.967538   -1.850709   -0.999473
     28          1           0        3.956297   -1.383882   -1.989721
     29          1           0        3.622616   -2.885823   -1.099235
     30          1           0        5.006979   -1.907907   -0.655975
     31          8           0        3.176855   -1.782445    1.245992
     32          1           0        2.572517   -2.544059    1.125555
     33          1           0        3.269330    2.212778    1.175723
     34          6           0        1.020625    2.336775   -0.296401
     35          6           0        0.046774    3.238448   -0.068041
     36          1           0       -0.200584    4.011096   -0.789069
     37          1           0       -0.538954    3.222068    0.846711
     38          6           0        1.800401    2.406497   -1.577799
     39          1           0        2.829482    2.722463   -1.384731
     40          1           0        1.371119    3.133545   -2.276763
     41          1           0        1.810201    1.446024   -2.094899
     42          6           0       -5.077093    0.062130   -0.257496
     43          1           0       -5.525823    0.669396    0.538080
     44          1           0       -5.319467    0.570071   -1.198940
     45          6           0       -5.691780   -1.329114   -0.250901
     46          1           0       -6.776379   -1.264216   -0.383302
     47          1           0       -5.495646   -1.845664    0.694822
     48          1           0       -5.287385   -1.946044   -1.060560
 ---------------------------------------------------------------------

 SCF Done:  E(RB3LYP) =  -1002.54768278     A.U. after   14 cycles

 The electronic state is 1-A.
 Alpha  occ. eigenvalues --  -19.18788 -19.18693 -19.16463 -19.15602 -10.25542
 Alpha  occ. eigenvalues --  -10.25488 -10.24211 -10.23445 -10.19851 -10.19687
 Alpha  occ. eigenvalues --  -10.19594 -10.19577 -10.19013 -10.18161 -10.18002
 Alpha  occ. eigenvalues --  -10.17946 -10.17519 -10.17474 -10.17112 -10.17089
 Alpha  occ. eigenvalues --  -10.16861 -10.16712  -1.06793  -1.06497  -1.04065
 Alpha  occ. eigenvalues --   -1.01472  -0.85746  -0.83407  -0.79224  -0.78773
 Alpha  occ. eigenvalues --   -0.75405  -0.73862  -0.73212  -0.71209  -0.68486
 Alpha  occ. eigenvalues --   -0.66895  -0.64271  -0.63691  -0.61043  -0.59550
 Alpha  occ. eigenvalues --   -0.57342  -0.55889  -0.55301  -0.52805  -0.51622
 Alpha  occ. eigenvalues --   -0.50747  -0.49241  -0.48248  -0.46828  -0.45713
 Alpha  occ. eigenvalues --   -0.45038  -0.44699  -0.43589  -0.43202  -0.42771
 Alpha  occ. eigenvalues --   -0.42358  -0.41564  -0.41270  -0.40076  -0.39931
 Alpha  occ. eigenvalues --   -0.39474  -0.39096  -0.38857  -0.38139  -0.37726
 Alpha  occ. eigenvalues --   -0.37146  -0.36898  -0.36559  -0.36199  -0.35328
 Alpha  occ. eigenvalues --   -0.34471  -0.33978  -0.33146  -0.33044  -0.31874
 Alpha  occ. eigenvalues --   -0.31006  -0.30780  -0.29839  -0.28312  -0.26987
 Alpha  occ. eigenvalues --   -0.24487  -0.22974  -0.22130
 Alpha virt. eigenvalues --   -0.00600  -0.00102   0.00008   0.00711   0.01391
 Alpha virt. eigenvalues --    0.01716   0.01917   0.02698   0.03138   0.03497
 Alpha virt. eigenvalues --    0.03851   0.04568   0.04668   0.05024   0.05259

 Mulliken atomic charges:
              1
     1  C    0.395031
     2  C   -0.327812
     3  H    0.156101
     4  H    0.166608
     5  C   -0.584551
     6  H    0.158355
     7  C    0.291411
     8  H    0.145353
     9  C   -0.015351
    10  H    0.157785
    11  C   -0.114626
    12  H    0.161649
    13  C    0.684244
    14  C    0.000823
    15  C    0.614157
    16  C   -1.341503
    17  C   -0.389723
    18  C   -0.135742
    19  H    0.148633
    20  H    0.150505
    21  O   -0.596206
    22  H    0.455550
    23  O   -0.593171
    24  H    0.450749
    25  O   -0.679352
    26  H    0.424238
    27  C   -0.335197
    28  H    0.161000
    29  H    0.160100
    30  H    0.160884
    31  O   -0.622279
    32  H    0.401839
    33  H    0.151692
    34  C    0.459162
    35  C   -0.580105
    36  H    0.146029
    37  H    0.141411
    38  C   -0.625264
    39  H    0.175335
    40  H    0.153642
    41  H    0.170688
    42  C   -0.084316
    43  H    0.152126
    44  H    0.151527
    45  C   -0.589446
    46  H    0.152466
    47  H    0.158033
    48  H    0.157517
 Sum of Mulliken atomic charges =   0.00000

 Dipole moment (field-independent basis, Debye):
    X=             -5.8214    Y=              1.9713    Z=             -3.1548  Tot=              6.9085
 Quadrupole moment (field-independent basis, Debye-Ang):
   XX=           -124.0924   YY=           -144.5159   ZZ=           -120.8850
   XY=              7.9757   XZ=             -9.2625   YZ=              0.9794

 Normal termination of Gaussian 09 at Fri Dec 23 15:48:38 2022.
