 Gaussian 09, Revision C.01,
 Gaussian 09:  EM64L-G09RevC.01 23-Sep-2011

 -----------------------------------------------------
 # mPW1PW91/6-31+g** scrf=(PCM,solvent=chloroform) nmr
 -----------------------------------------------------

 99/9=1/99;
 -------
 comment
 -------
 Charge =  0 Multiplicity = 1

                         Standard orientation:
 ---------------------------------------------------------------------
 Center     Atomic      Atomic             Coordinates (Angstroms)
 Number     Number       Type             X           Y           Z
 ---------------------------------------------------------------------
      1          1           0        0.081070    0.472546   -2.064223
      2          6           0        0.492334   -0.048746   -1.189182
      3          6           0        1.757400   -2.100986   -0.430224
      4          6           0        2.262508    0.201350    0.639708
      5          6           0        2.754693   -1.206652    0.277388
      6          6           0        1.573191    0.860813   -0.575808
      7          6           0        1.114316   -1.381657   -1.624220
      8          1           0        0.973484   -2.381494    0.283192
      9          1           0        1.532462    0.138550    1.452612
     10          1           0        2.339924    1.034349   -1.350910
     11          1           0        1.870784   -1.192074   -2.396706
     12          1           0        2.260823   -3.019101   -0.751522
     13          1           0        0.337047   -2.009708   -2.072679
     14          6           0        3.893544   -1.775235    1.006513
     15          1           0        4.330376   -1.224455    1.836676
     16          1           0        4.023358   -2.856860    1.032998
     17          8           0        4.092972   -1.176587   -0.293776
     18          8           0        3.343658    0.989312    1.120428
     19          1           0        4.089313    0.776419    0.527216
     20          8           0        0.953763    2.094006   -0.241187
     21          6           0        1.795615    3.239703   -0.257027
     22          1           0        2.547437    3.202776    0.536397
     23          1           0        1.142343    4.104299   -0.110053
     24          1           0        2.304163    3.342244   -1.228717
     25          8           0       -0.542586   -0.327149   -0.255082
     26         14           0       -1.952686    0.535620    0.086141
     27          6           0       -1.740901    1.472665    1.710161
     28          1           0       -2.638191    2.048416    1.968288
     29          1           0       -0.899985    2.167393    1.621333
     30          1           0       -1.528883    0.794798    2.545256
     31          6           0       -3.314079   -0.808166    0.251694
     32          6           0       -2.340659    1.745212   -1.313188
     33          1           0       -3.267953    2.293332   -1.107304
     34          1           0       -2.461214    1.246093   -2.281728
     35          1           0       -1.532064    2.477441   -1.406758
     36          6           0       -3.492342   -1.547147   -1.091189
     37          1           0       -3.824883   -0.872292   -1.889465
     38          1           0       -4.249507   -2.339646   -0.998227
     39          1           0       -2.558455   -2.019436   -1.418067
     40          6           0       -4.655117   -0.155843    0.650644
     41          1           0       -4.996578    0.573356   -0.094922
     42          1           0       -4.589596    0.359326    1.616618
     43          1           0       -5.442069   -0.918896    0.741319
     44          6           0       -2.909314   -1.832920    1.332693
     45          1           0       -3.673031   -2.619735    1.423100
     46          1           0       -2.804126   -1.367870    2.320461
     47          1           0       -1.958036   -2.319454    1.089001
 ---------------------------------------------------------------------

 SCF Done:  E(RmPW1PW91) =  -1140.62596123     A.U. after   13 cycles

      1  H    Isotropic =    27.3974   Anisotropy =     3.8705

      2  C    Isotropic =   121.5925   Anisotropy =    36.8373

      3  C    Isotropic =   167.3896   Anisotropy =    29.6594

      4  C    Isotropic =   123.8344   Anisotropy =    38.6377

      5  C    Isotropic =   134.3079   Anisotropy =    59.5238

      6  C    Isotropic =   110.0969   Anisotropy =    34.4488

      7  C    Isotropic =   164.0333   Anisotropy =    18.9152

      8  H    Isotropic =    28.9734   Anisotropy =     7.3357

      9  H    Isotropic =    27.3135   Anisotropy =     5.5384

     10  H    Isotropic =    28.7389   Anisotropy =     3.2987

     11  H    Isotropic =    29.8479   Anisotropy =     8.8348

     12  H    Isotropic =    30.4686   Anisotropy =    10.6472

     13  H    Isotropic =    29.8238   Anisotropy =     9.0479

     14  C    Isotropic =   146.4592   Anisotropy =    31.5524

     15  H    Isotropic =    28.5358   Anisotropy =     9.1657

     16  H    Isotropic =    29.0194   Anisotropy =    11.3046

     17  O    Isotropic =   312.4729   Anisotropy =   124.6259

     18  O    Isotropic =   308.9350   Anisotropy =    41.0207

     19  H    Isotropic =    29.7624   Anisotropy =    14.0553

     20  O    Isotropic =   295.0599   Anisotropy =    70.6007

     21  C    Isotropic =   136.4666   Anisotropy =    85.7328

     22  H    Isotropic =    27.0769   Anisotropy =     8.9411

     23  H    Isotropic =    27.8199   Anisotropy =    10.6136

     24  H    Isotropic =    28.3103   Anisotropy =    10.3437

     25  O    Isotropic =   290.2654   Anisotropy =    21.0251

     26  Si   Isotropic =   378.3600   Anisotropy =    32.5802

     27  C    Isotropic =   198.7218   Anisotropy =     8.5248

     28  H    Isotropic =    31.7343   Anisotropy =    10.9064

     29  H    Isotropic =    30.8683   Anisotropy =    10.1584

     30  H    Isotropic =    31.3161   Anisotropy =     8.1962

     31  C    Isotropic =   172.6208   Anisotropy =     7.5865

     32  C    Isotropic =   201.2146   Anisotropy =     4.7476

     33  H    Isotropic =    31.6925   Anisotropy =    10.6799

     34  H    Isotropic =    31.4594   Anisotropy =     8.8970

     35  H    Isotropic =    31.0458   Anisotropy =     9.6030

     36  C    Isotropic =   170.4280   Anisotropy =    37.4460

     37  H    Isotropic =    30.6417   Anisotropy =     8.3483

     38  H    Isotropic =    31.0538   Anisotropy =     9.8178

     39  H    Isotropic =    30.4127   Anisotropy =     7.7578

     40  C    Isotropic =   170.3693   Anisotropy =    38.9838

     41  H    Isotropic =    30.7256   Anisotropy =     9.0488

     42  H    Isotropic =    30.7003   Anisotropy =     8.8445

     43  H    Isotropic =    30.9419   Anisotropy =    10.2256

     44  C    Isotropic =   170.3296   Anisotropy =    37.6900

     45  H    Isotropic =    31.0472   Anisotropy =     9.8029

     46  H    Isotropic =    30.5003   Anisotropy =     8.2629

     47  H    Isotropic =    30.2432   Anisotropy =     8.2153

 The electronic state is 1-A.
 Alpha  occ. eigenvalues --  -66.30032 -19.27168 -19.25296 -19.25223 -19.23096
 Alpha  occ. eigenvalues --  -10.31896 -10.30682 -10.30624 -10.30302 -10.30220
 Alpha  occ. eigenvalues --  -10.28269 -10.25461 -10.25024 -10.24360 -10.23391
 Alpha  occ. eigenvalues --  -10.23180 -10.23123 -10.22020 -10.21571  -5.33388
 Alpha  occ. eigenvalues --   -3.67311  -3.67015  -3.66983  -1.11564  -1.07332
 Alpha  occ. eigenvalues --   -1.05287  -1.02840  -0.84526  -0.81930  -0.77446
 Alpha  occ. eigenvalues --   -0.75386  -0.71770  -0.70186  -0.70057  -0.69921
 Alpha  occ. eigenvalues --   -0.69219  -0.68970  -0.63763  -0.62012  -0.59229
 Alpha  occ. eigenvalues --   -0.56384  -0.55030  -0.52497  -0.51888  -0.50987
 Alpha  occ. eigenvalues --   -0.48205  -0.48150  -0.47589  -0.46450  -0.45674
 Alpha  occ. eigenvalues --   -0.44557  -0.44347  -0.43928  -0.42794  -0.41959
 Alpha  occ. eigenvalues --   -0.41447  -0.41020  -0.40633  -0.40342  -0.39774
 Alpha  occ. eigenvalues --   -0.39396  -0.38918  -0.38527  -0.38473  -0.38076
 Alpha  occ. eigenvalues --   -0.36989  -0.36463  -0.35336  -0.33963  -0.33799
 Alpha  occ. eigenvalues --   -0.33463  -0.32844  -0.32509  -0.31327  -0.30572
 Alpha  occ. eigenvalues --   -0.29721  -0.28880  -0.26540  -0.25520
 Alpha virt. eigenvalues --   -0.00058   0.00802   0.01270   0.01518   0.02465
 Alpha virt. eigenvalues --    0.02902   0.03259   0.03791   0.03967   0.04568
 Alpha virt. eigenvalues --    0.04914   0.05685   0.05803   0.06047   0.06361

 Mulliken atomic charges:
              1
     1  H    0.151488
     2  C    0.385105
     3  C   -0.328084
     4  C    0.056214
     5  C    0.186044
     6  C   -0.612675
     7  C   -0.560965
     8  H    0.194258
     9  H    0.188019
    10  H    0.147230
    11  H    0.177487
    12  H    0.171697
    13  H    0.171703
    14  C   -0.134261
    15  H    0.184159
    16  H    0.175881
    17  O   -0.402565
    18  O   -0.533620
    19  H    0.384012
    20  O   -0.229462
    21  C   -0.163283
    22  H    0.176658
    23  H    0.160551
    24  H    0.143487
    25  O   -0.287797
    26  Si   0.710194
    27  C   -0.725421
    28  H    0.180269
    29  H    0.206150
    30  H    0.179685
    31  C    0.003080
    32  C   -0.733364
    33  H    0.186204
    34  H    0.183401
    35  H    0.205406
    36  C   -0.586669
    37  H    0.163753
    38  H    0.161250
    39  H    0.172183
    40  C   -0.543721
    41  H    0.165761
    42  H    0.168426
    43  H    0.163726
    44  C   -0.562244
    45  H    0.160720
    46  H    0.164232
    47  H    0.175696
 Sum of Mulliken atomic charges =   0.00000

 Dipole moment (field-independent basis, Debye):
    X=             -0.0572    Y=             -0.7474    Z=             -0.9563  Tot=              1.2150
 Quadrupole moment (field-independent basis, Debye-Ang):
   XX=           -129.5077   YY=           -120.5690   ZZ=           -125.7090
   XY=             -2.9312   XZ=              0.7094   YZ=             -4.7438

 Normal termination of Gaussian 09 at Tue Dec  6 13:53:23 2022.
