 Gaussian 09, Revision C.01,
 Gaussian 09:  EM64L-G09RevC.01 23-Sep-2011

 -----------------------------------------------------
 # mPW1PW91/6-31+g** scrf=(PCM,solvent=chloroform) nmr
 -----------------------------------------------------

 99/9=1/99;
 -------
 comment
 -------
 Charge =  0 Multiplicity = 1

                         Standard orientation:
 ---------------------------------------------------------------------
 Center     Atomic      Atomic             Coordinates (Angstroms)
 Number     Number       Type             X           Y           Z
 ---------------------------------------------------------------------
      1          1           0       -0.240192   -1.041518    0.372657
      2          6           0       -0.466294   -0.208585   -0.306639
      3          6           0       -2.605342   -1.398379   -0.937883
      4          6           0       -2.530701    0.164818    1.091723
      5          6           0       -3.366974   -0.464758   -0.014728
      6          6           0       -1.264558    0.820849    0.518063
      7          6           0       -1.319704   -0.735443   -1.466486
      8          1           0       -3.252431   -1.718328   -1.761742
      9          1           0       -3.123087    0.939744    1.598218
     10          1           0       -0.641046    1.179949    1.350674
     11          1           0       -0.737737   -1.456728   -2.050489
     12          1           0       -2.345084   -2.299156   -0.366741
     13          1           0       -1.562090    0.105235   -2.126030
     14          6           0       -4.619094    0.179775   -0.424963
     15          1           0       -4.913671    1.129754    0.019937
     16          1           0       -5.013392   -0.007336   -1.423902
     17          8           0       -4.642334   -0.954066    0.460979
     18          8           0       -2.113445   -0.833942    2.021061
     19          1           0       -2.921566   -1.291594    2.307232
     20          8           0       -1.732828    1.917452   -0.255522
     21          6           0       -0.827925    3.000456   -0.411295
     22          1           0       -0.437612    3.333909    0.562879
     23          1           0       -1.400773    3.818320   -0.858558
     24          1           0        0.014920    2.742823   -1.059609
     25          8           0        0.737853    0.384661   -0.789231
     26         14           0        2.282197   -0.286342   -0.767113
     27          6           0        2.202249   -2.120827   -1.230503
     28          1           0        3.199997   -2.575443   -1.213080
     29          1           0        1.803529   -2.244698   -2.244323
     30          1           0        1.567729   -2.701489   -0.550911
     31          6           0        3.103773   -0.060065    0.956597
     32          6           0        3.216739    0.671104   -2.094956
     33          1           0        4.252314    0.326291   -2.196789
     34          1           0        3.240584    1.744771   -1.877370
     35          1           0        2.725153    0.542707   -3.066163
     36          6           0        3.108962    1.434917    1.340283
     37          1           0        3.684855    2.038372    0.627985
     38          1           0        3.564687    1.576339    2.331238
     39          1           0        2.094033    1.846842    1.381033
     40          6           0        4.561778   -0.568201    0.903467
     41          1           0        5.163328   -0.021549    0.166943
     42          1           0        4.618869   -1.635678    0.657135
     43          1           0        5.047718   -0.436010    1.881233
     44          6           0        2.342028   -0.853434    2.040940
     45          1           0        2.829144   -0.726203    3.018949
     46          1           0        2.323220   -1.929209    1.827166
     47          1           0        1.304250   -0.517530    2.151992
 ---------------------------------------------------------------------

 SCF Done:  E(RmPW1PW91) =  -1140.62360589     A.U. after   13 cycles

      1  H    Isotropic =    27.1063   Anisotropy =     8.9432

      2  C    Isotropic =   121.7348   Anisotropy =    54.4627

      3  C    Isotropic =   167.2441   Anisotropy =    25.7162

      4  C    Isotropic =   117.5782   Anisotropy =    26.3202

      5  C    Isotropic =   136.0189   Anisotropy =    55.1722

      6  C    Isotropic =   112.9766   Anisotropy =    44.8643

      7  C    Isotropic =   166.7486   Anisotropy =    31.4997

      8  H    Isotropic =    30.5555   Anisotropy =    10.4317

      9  H    Isotropic =    28.1863   Anisotropy =     5.2144

     10  H    Isotropic =    27.8036   Anisotropy =     2.8586

     11  H    Isotropic =    29.9872   Anisotropy =     8.5407

     12  H    Isotropic =    29.2874   Anisotropy =     6.2574

     13  H    Isotropic =    29.3369   Anisotropy =     4.2947

     14  C    Isotropic =   139.5300   Anisotropy =    33.2767

     15  H    Isotropic =    28.7999   Anisotropy =     9.1066

     16  H    Isotropic =    28.8070   Anisotropy =     9.8820

     17  O    Isotropic =   315.3805   Anisotropy =   135.2265

     18  O    Isotropic =   295.4440   Anisotropy =    54.1841

     19  H    Isotropic =    29.9562   Anisotropy =    18.4592

     20  O    Isotropic =   313.4708   Anisotropy =    46.2580

     21  C    Isotropic =   135.7345   Anisotropy =    85.5061

     22  H    Isotropic =    28.2268   Anisotropy =     8.5234

     23  H    Isotropic =    27.9149   Anisotropy =    10.8978

     24  H    Isotropic =    27.2330   Anisotropy =     7.0015

     25  O    Isotropic =   280.7345   Anisotropy =    27.0358

     26  Si   Isotropic =   380.3910   Anisotropy =    34.8492

     27  C    Isotropic =   201.3063   Anisotropy =     6.5135

     28  H    Isotropic =    31.5595   Anisotropy =    10.7755

     29  H    Isotropic =    31.5911   Anisotropy =     9.8657

     30  H    Isotropic =    31.1044   Anisotropy =     7.6085

     31  C    Isotropic =   171.4752   Anisotropy =     7.3212

     32  C    Isotropic =   198.7492   Anisotropy =     8.0849

     33  H    Isotropic =    31.6116   Anisotropy =    10.7751

     34  H    Isotropic =    31.3166   Anisotropy =     8.6111

     35  H    Isotropic =    31.5510   Anisotropy =     9.9129

     36  C    Isotropic =   170.1173   Anisotropy =    36.5810

     37  H    Isotropic =    30.5524   Anisotropy =     8.5198

     38  H    Isotropic =    30.9606   Anisotropy =     9.3577

     39  H    Isotropic =    30.1491   Anisotropy =     8.6016

     40  C    Isotropic =   169.6094   Anisotropy =    40.0730

     41  H    Isotropic =    30.7253   Anisotropy =     9.2498

     42  H    Isotropic =    30.6682   Anisotropy =     8.9442

     43  H    Isotropic =    30.9726   Anisotropy =    10.0370

     44  C    Isotropic =   170.0331   Anisotropy =    37.8951

     45  H    Isotropic =    30.8832   Anisotropy =     9.2544

     46  H    Isotropic =    30.4415   Anisotropy =     7.5300

     47  H    Isotropic =    30.2531   Anisotropy =     9.9814

 The electronic state is 1-A.
 Alpha  occ. eigenvalues --  -66.30426 -19.26782 -19.25948 -19.25439 -19.23432
 Alpha  occ. eigenvalues --  -10.31466 -10.30933 -10.30459 -10.30369 -10.30290
 Alpha  occ. eigenvalues --  -10.28331 -10.25407 -10.24807 -10.24666 -10.23656
 Alpha  occ. eigenvalues --  -10.23514 -10.23416 -10.22529 -10.22324  -5.33825
 Alpha  occ. eigenvalues --   -3.67734  -3.67467  -3.67413  -1.11298  -1.07463
 Alpha  occ. eigenvalues --   -1.06128  -1.02997  -0.84545  -0.82274  -0.77947
 Alpha  occ. eigenvalues --   -0.74738  -0.72194  -0.70589  -0.70237  -0.69716
 Alpha  occ. eigenvalues --   -0.69576  -0.68794  -0.64854  -0.62411  -0.57406
 Alpha  occ. eigenvalues --   -0.57221  -0.54031  -0.53745  -0.52800  -0.50252
 Alpha  occ. eigenvalues --   -0.48417  -0.48333  -0.48000  -0.46359  -0.44766
 Alpha  occ. eigenvalues --   -0.44722  -0.44371  -0.43899  -0.43556  -0.42721
 Alpha  occ. eigenvalues --   -0.42582  -0.41460  -0.40926  -0.40250  -0.40173
 Alpha  occ. eigenvalues --   -0.39749  -0.39151  -0.38912  -0.38444  -0.37424
 Alpha  occ. eigenvalues --   -0.37249  -0.36241  -0.35761  -0.35117  -0.33912
 Alpha  occ. eigenvalues --   -0.33479  -0.33192  -0.31602  -0.31090  -0.31016
 Alpha  occ. eigenvalues --   -0.30154  -0.28520  -0.26936  -0.26013
 Alpha virt. eigenvalues --   -0.00215   0.00939   0.01248   0.01465   0.02130
 Alpha virt. eigenvalues --    0.03014   0.03127   0.03744   0.03945   0.04574
 Alpha virt. eigenvalues --    0.04807   0.05409   0.05701   0.06038   0.06418

 Mulliken atomic charges:
              1
     1  H    0.162064
     2  C   -0.337879
     3  C   -0.345613
     4  C   -0.037495
     5  C   -0.276043
     6  C   -0.069968
     7  C   -0.082710
     8  H    0.171356
     9  H    0.161622
    10  H    0.143530
    11  H    0.166678
    12  H    0.188588
    13  H    0.186634
    14  C   -0.039641
    15  H    0.172688
    16  H    0.172080
    17  O   -0.359062
    18  O   -0.502584
    19  H    0.386147
    20  O   -0.215586
    21  C   -0.116085
    22  H    0.140968
    23  H    0.160847
    24  H    0.174022
    25  O   -0.258380
    26  Si   0.723724
    27  C   -0.702484
    28  H    0.189169
    29  H    0.187282
    30  H    0.187515
    31  C   -0.035985
    32  C   -0.685884
    33  H    0.186482
    34  H    0.186981
    35  H    0.187853
    36  C   -0.559586
    37  H    0.165167
    38  H    0.163513
    39  H    0.171473
    40  C   -0.522614
    41  H    0.168137
    42  H    0.166597
    43  H    0.166666
    44  C   -0.591891
    45  H    0.165078
    46  H    0.166555
    47  H    0.170075
 Sum of Mulliken atomic charges =   0.00000

 Dipole moment (field-independent basis, Debye):
    X=              1.3343    Y=              0.5531    Z=             -1.1701  Tot=              1.8589
 Quadrupole moment (field-independent basis, Debye-Ang):
   XX=           -127.6576   YY=           -123.0353   ZZ=           -126.0222
   XY=             -5.4131   XZ=              3.1278   YZ=              2.6979

 Normal termination of Gaussian 09 at Tue Dec  6 15:13:40 2022.
