 Gaussian 09, Revision C.01,
 Gaussian 09:  EM64L-G09RevC.01 23-Sep-2011

 -----------------------------------------------------
 # mPW1PW91/6-31+g** scrf=(PCM,solvent=chloroform) nmr
 -----------------------------------------------------

 99/9=1/99;
 -------
 comment
 -------
 Charge =  0 Multiplicity = 1

                         Standard orientation:
 ---------------------------------------------------------------------
 Center     Atomic      Atomic             Coordinates (Angstroms)
 Number     Number       Type             X           Y           Z
 ---------------------------------------------------------------------
      1          1           0        0.175787    0.667771   -1.950951
      2          6           0        0.560102    0.076707   -1.106863
      3          6           0        1.866717   -2.029317   -0.516912
      4          6           0        2.247068    0.104655    0.792601
      5          6           0        2.871187   -1.163180    0.224096
      6          6           0        1.637581    0.898041   -0.371688
      7          6           0        1.196378   -1.217908   -1.641642
      8          1           0        1.101406   -2.388006    0.181423
      9          1           0        1.434718   -0.190833    1.474435
     10          1           0        2.451878    1.120903   -1.077267
     11          1           0        1.948790   -0.958956   -2.397390
     12          1           0        2.378460   -2.903760   -0.932153
     13          1           0        0.422242   -1.813926   -2.136981
     14          6           0        4.123979   -1.697300    0.769272
     15          1           0        4.605671   -1.182804    1.597906
     16          1           0        4.333823   -2.764500    0.682108
     17          8           0        4.119108   -0.970773   -0.471989
     18          8           0        3.211908    0.879065    1.477856
     19          1           0        2.795767    1.750114    1.592610
     20          8           0        1.140687    2.126960    0.167141
     21          6           0        1.246730    3.235656   -0.713196
     22          1           0        2.293662    3.426266   -0.990673
     23          1           0        0.852695    4.103865   -0.178583
     24          1           0        0.661557    3.091527   -1.632098
     25          8           0       -0.507226   -0.275613   -0.236695
     26         14           0       -1.965963    0.497211    0.093536
     27          6           0       -1.842990    1.442326    1.721658
     28          1           0       -2.765938    1.992054    1.943019
     29          1           0       -1.018220    2.159913    1.668359
     30          1           0       -1.643614    0.771249    2.565092
     31          6           0       -3.251420   -0.918759    0.222737
     32          6           0       -2.410055    1.695966   -1.303322
     33          1           0       -3.419632    2.097785   -1.153388
     34          1           0       -2.391919    1.217551   -2.289394
     35          1           0       -1.725458    2.551194   -1.331743
     36          6           0       -3.391596   -1.633805   -1.137860
     37          1           0       -3.756533   -0.957794   -1.920985
     38          1           0       -4.109370   -2.463823   -1.063884
     39          1           0       -2.436007   -2.053037   -1.474052
     40          6           0       -4.626433   -0.351394    0.637365
     41          1           0       -5.008393    0.378155   -0.087956
     42          1           0       -4.591531    0.138284    1.618143
     43          1           0       -5.368992   -1.159859    0.703800
     44          6           0       -2.790296   -1.945295    1.279726
     45          1           0       -3.512878   -2.771449    1.353826
     46          1           0       -2.705784   -1.497666    2.277611
     47          1           0       -1.816248   -2.376654    1.023330
 ---------------------------------------------------------------------

 SCF Done:  E(RmPW1PW91) =  -1140.62598637     A.U. after   13 cycles

      1  H    Isotropic =    27.0950   Anisotropy =     3.4695

      2  C    Isotropic =   126.1911   Anisotropy =    52.4599

      3  C    Isotropic =   166.5756   Anisotropy =    29.8477

      4  C    Isotropic =   128.1512   Anisotropy =    42.8232

      5  C    Isotropic =   135.5984   Anisotropy =    60.3326

      6  C    Isotropic =   108.7709   Anisotropy =    44.4220

      7  C    Isotropic =   163.0134   Anisotropy =    20.4123

      8  H    Isotropic =    29.1278   Anisotropy =     7.2048

      9  H    Isotropic =    27.2873   Anisotropy =     6.5153

     10  H    Isotropic =    28.3707   Anisotropy =     5.4278

     11  H    Isotropic =    29.7860   Anisotropy =     8.7637

     12  H    Isotropic =    30.5559   Anisotropy =    10.9569

     13  H    Isotropic =    29.7885   Anisotropy =     8.8495

     14  C    Isotropic =   145.8970   Anisotropy =    32.3181

     15  H    Isotropic =    28.4282   Anisotropy =     9.4587

     16  H    Isotropic =    29.0280   Anisotropy =    11.3489

     17  O    Isotropic =   310.8312   Anisotropy =   120.8314

     18  O    Isotropic =   315.2253   Anisotropy =    37.3386

     19  H    Isotropic =    29.2418   Anisotropy =    18.2610

     20  O    Isotropic =   310.6401   Anisotropy =    64.2893

     21  C    Isotropic =   138.6495   Anisotropy =    82.1390

     22  H    Isotropic =    28.3491   Anisotropy =    10.6083

     23  H    Isotropic =    27.8694   Anisotropy =    10.3404

     24  H    Isotropic =    27.9805   Anisotropy =     8.6002

     25  O    Isotropic =   288.7925   Anisotropy =    18.8237

     26  Si   Isotropic =   379.4580   Anisotropy =    36.4041

     27  C    Isotropic =   198.4969   Anisotropy =     8.4153

     28  H    Isotropic =    31.7230   Anisotropy =    10.8793

     29  H    Isotropic =    30.9868   Anisotropy =    10.1028

     30  H    Isotropic =    31.3235   Anisotropy =     8.3540

     31  C    Isotropic =   172.8862   Anisotropy =     7.7529

     32  C    Isotropic =   201.1129   Anisotropy =     4.5627

     33  H    Isotropic =    31.5509   Anisotropy =    10.5520

     34  H    Isotropic =    31.4160   Anisotropy =     8.7779

     35  H    Isotropic =    31.3393   Anisotropy =     9.6647

     36  C    Isotropic =   170.6405   Anisotropy =    37.4109

     37  H    Isotropic =    30.6370   Anisotropy =     8.3152

     38  H    Isotropic =    31.0121   Anisotropy =     9.8433

     39  H    Isotropic =    30.3871   Anisotropy =     7.8200

     40  C    Isotropic =   170.3352   Anisotropy =    39.0898

     41  H    Isotropic =    30.7062   Anisotropy =     9.0824

     42  H    Isotropic =    30.7064   Anisotropy =     8.8126

     43  H    Isotropic =    30.9549   Anisotropy =    10.1648

     44  C    Isotropic =   170.5287   Anisotropy =    37.8940

     45  H    Isotropic =    31.0215   Anisotropy =     9.8231

     46  H    Isotropic =    30.4878   Anisotropy =     8.3331

     47  H    Isotropic =    30.2068   Anisotropy =     8.2749

 The electronic state is 1-A.
 Alpha  occ. eigenvalues --  -66.30322 -19.26502 -19.25879 -19.25108 -19.23334
 Alpha  occ. eigenvalues --  -10.31313 -10.31014 -10.30474 -10.30447 -10.29627
 Alpha  occ. eigenvalues --  -10.29470 -10.25263 -10.25099 -10.24560 -10.23537
 Alpha  occ. eigenvalues --  -10.23318 -10.23230 -10.22547 -10.21800  -5.33684
 Alpha  occ. eigenvalues --   -3.67608  -3.67316  -3.67275  -1.10752  -1.08337
 Alpha  occ. eigenvalues --   -1.05348  -1.03185  -0.84718  -0.82092  -0.77558
 Alpha  occ. eigenvalues --   -0.75353  -0.72099  -0.70884  -0.70345  -0.70075
 Alpha  occ. eigenvalues --   -0.69372  -0.68485  -0.63960  -0.61648  -0.58574
 Alpha  occ. eigenvalues --   -0.56317  -0.54691  -0.52915  -0.52594  -0.50478
 Alpha  occ. eigenvalues --   -0.49199  -0.48331  -0.47621  -0.47259  -0.45423
 Alpha  occ. eigenvalues --   -0.45136  -0.44505  -0.44103  -0.43075  -0.42372
 Alpha  occ. eigenvalues --   -0.41782  -0.41060  -0.40603  -0.40381  -0.39856
 Alpha  occ. eigenvalues --   -0.39243  -0.39037  -0.38702  -0.38560  -0.38174
 Alpha  occ. eigenvalues --   -0.37126  -0.36348  -0.35467  -0.34605  -0.34197
 Alpha  occ. eigenvalues --   -0.33613  -0.32977  -0.32045  -0.31020  -0.29793
 Alpha  occ. eigenvalues --   -0.29489  -0.28577  -0.27596  -0.26022
 Alpha virt. eigenvalues --   -0.00235   0.00703   0.01138   0.01688   0.02679
 Alpha virt. eigenvalues --    0.02940   0.03304   0.03411   0.03961   0.04647
 Alpha virt. eigenvalues --    0.04964   0.05486   0.05933   0.06030   0.06448

 Mulliken atomic charges:
              1
     1  H    0.146477
     2  C    0.281961
     3  C   -0.346798
     4  C   -0.045024
     5  C    0.153459
     6  C   -0.508794
     7  C   -0.538687
     8  H    0.187837
     9  H    0.173751
    10  H    0.164032
    11  H    0.182306
    12  H    0.169860
    13  H    0.171370
    14  C   -0.000599
    15  H    0.181527
    16  H    0.167314
    17  O   -0.354340
    18  O   -0.526991
    19  H    0.390425
    20  O   -0.304623
    21  C   -0.106024
    22  H    0.162898
    23  H    0.169068
    24  H    0.154317
    25  O   -0.270622
    26  Si   0.592771
    27  C   -0.688477
    28  H    0.181767
    29  H    0.204544
    30  H    0.181976
    31  C    0.005410
    32  C   -0.712473
    33  H    0.189380
    34  H    0.187258
    35  H    0.186358
    36  C   -0.588774
    37  H    0.164780
    38  H    0.162297
    39  H    0.172580
    40  C   -0.539497
    41  H    0.164533
    42  H    0.169660
    43  H    0.164819
    44  C   -0.556013
    45  H    0.161614
    46  H    0.164560
    47  H    0.176827
 Sum of Mulliken atomic charges =   0.00000

 Dipole moment (field-independent basis, Debye):
    X=             -2.7389    Y=              1.0312    Z=             -1.2533  Tot=              3.1837
 Quadrupole moment (field-independent basis, Debye-Ang):
   XX=           -141.8030   YY=           -114.6805   ZZ=           -125.2101
   XY=             -2.5485   XZ=              1.2159   YZ=             -3.9778

 Normal termination of Gaussian 09 at Tue Dec  6 14:43:33 2022.
