 Gaussian 09, Revision C.01,
 Gaussian 09:  EM64L-G09RevC.01 23-Sep-2011

 -----------------------------------------------------
 # mPW1PW91/6-31+g** scrf=(PCM,solvent=chloroform) nmr
 -----------------------------------------------------

 99/9=1/99;
 -------
 comment
 -------
 Charge =  0 Multiplicity = 1

                         Standard orientation:
 ---------------------------------------------------------------------
 Center     Atomic      Atomic             Coordinates (Angstroms)
 Number     Number       Type             X           Y           Z
 ---------------------------------------------------------------------
      1          1           0        0.152535   -0.114877   -2.223918
      2          6           0        0.560460   -0.394563   -1.243191
      3          6           0        2.071571   -2.025916   -0.038097
      4          6           0        2.099772    0.480407    0.601974
      5          6           0        2.846527   -0.858355    0.536750
      6          6           0        1.415544    0.786986   -0.749846
      7          6           0        1.425300   -1.654886   -1.380307
      8          1           0        1.286263   -2.307787    0.673560
      9          1           0        1.322855    0.432321    1.371251
     10          1           0        2.206021    0.960859   -1.500723
     11          1           0        2.206614   -1.475804   -2.130795
     12          1           0        2.742471   -2.884229   -0.151680
     13          1           0        0.804566   -2.480825   -1.744814
     14          6           0        4.000783   -1.078508    1.414828
     15          1           0        4.272246   -0.321673    2.147554
     16          1           0        4.304793   -2.098219    1.650144
     17          8           0        4.203302   -0.692945    0.036717
     18          8           0        2.990881    1.519670    0.984814
     19          1           0        3.807452    1.345704    0.478849
     20          8           0        0.570652    1.924413   -0.674660
     21          6           0        1.202927    3.181084   -0.875758
     22          1           0        1.904064    3.418186   -0.070283
     23          1           0        0.403606    3.926941   -0.902396
     24          1           0        1.740191    3.204865   -1.837487
     25          8           0       -0.491269   -0.643662   -0.318712
     26         14           0       -2.152889   -0.478624   -0.550657
     27          6           0       -2.507807    0.700163   -1.984416
     28          1           0       -3.570475    0.971169   -2.011430
     29          1           0       -2.265585    0.250205   -2.954835
     30          1           0       -1.921694    1.618993   -1.882439
     31          6           0       -2.857402    0.182566    1.102184
     32          6           0       -2.857121   -2.188510   -0.954073
     33          1           0       -3.938384   -2.152483   -1.134251
     34          1           0       -2.677210   -2.903513   -0.142745
     35          1           0       -2.387533   -2.593903   -1.858986
     36          6           0       -2.319228   -0.663123    2.276364
     37          1           0       -2.613324   -1.717235    2.192866
     38          1           0       -2.716879   -0.288298    3.231003
     39          1           0       -1.225955   -0.625007    2.332096
     40          6           0       -4.399364    0.099753    1.090023
     41          1           0       -4.755704   -0.933530    0.999848
     42          1           0       -4.838265    0.678872    0.267372
     43          1           0       -4.810438    0.506048    2.025573
     44          6           0       -2.431105    1.653232    1.301730
     45          1           0       -2.770919    2.019246    2.281946
     46          1           0       -2.870389    2.307997    0.539092
     47          1           0       -1.344154    1.774913    1.250577
 ---------------------------------------------------------------------

 SCF Done:  E(RmPW1PW91) =  -1140.62499626     A.U. after   13 cycles

      1  H    Isotropic =    27.3736   Anisotropy =     3.8313

      2  C    Isotropic =   122.3243   Anisotropy =    35.8794

      3  C    Isotropic =   167.4872   Anisotropy =    29.3565

      4  C    Isotropic =   123.6335   Anisotropy =    38.3137

      5  C    Isotropic =   133.4771   Anisotropy =    59.9914

      6  C    Isotropic =   110.6975   Anisotropy =    34.9127

      7  C    Isotropic =   164.0843   Anisotropy =    19.3285

      8  H    Isotropic =    29.0089   Anisotropy =     6.7555

      9  H    Isotropic =    27.1879   Anisotropy =     5.7616

     10  H    Isotropic =    28.7375   Anisotropy =     3.1228

     11  H    Isotropic =    29.8315   Anisotropy =     8.8179

     12  H    Isotropic =    30.4690   Anisotropy =    10.8370

     13  H    Isotropic =    29.8965   Anisotropy =     9.0490

     14  C    Isotropic =   146.2702   Anisotropy =    32.3755

     15  H    Isotropic =    28.4933   Anisotropy =     9.0043

     16  H    Isotropic =    29.0570   Anisotropy =    11.2981

     17  O    Isotropic =   314.0877   Anisotropy =   123.8255

     18  O    Isotropic =   308.9071   Anisotropy =    39.3193

     19  H    Isotropic =    29.8804   Anisotropy =    14.1533

     20  O    Isotropic =   295.9967   Anisotropy =    71.4829

     21  C    Isotropic =   136.2341   Anisotropy =    86.1627

     22  H    Isotropic =    27.1468   Anisotropy =     8.8308

     23  H    Isotropic =    27.8894   Anisotropy =    10.4470

     24  H    Isotropic =    28.3167   Anisotropy =    10.3027

     25  O    Isotropic =   292.4847   Anisotropy =    27.4918

     26  Si   Isotropic =   378.6636   Anisotropy =    36.8501

     27  C    Isotropic =   199.9057   Anisotropy =     7.7597

     28  H    Isotropic =    31.5909   Anisotropy =    10.4052

     29  H    Isotropic =    31.4143   Anisotropy =     9.6557

     30  H    Isotropic =    31.0127   Anisotropy =     9.0610

     31  C    Isotropic =   172.3390   Anisotropy =     8.5122

     32  C    Isotropic =   197.8687   Anisotropy =     8.0094

     33  H    Isotropic =    31.6542   Anisotropy =    10.6859

     34  H    Isotropic =    31.3912   Anisotropy =     8.6076

     35  H    Isotropic =    31.6138   Anisotropy =     9.1737

     36  C    Isotropic =   170.5368   Anisotropy =    37.3509

     37  H    Isotropic =    30.5045   Anisotropy =     8.6042

     38  H    Isotropic =    30.9833   Anisotropy =     9.4490

     39  H    Isotropic =    30.2452   Anisotropy =     8.3730

     40  C    Isotropic =   170.0894   Anisotropy =    39.5739

     41  H    Isotropic =    30.7257   Anisotropy =     9.2105

     42  H    Isotropic =    30.7290   Anisotropy =     9.2839

     43  H    Isotropic =    30.9314   Anisotropy =    10.0592

     44  C    Isotropic =   170.3538   Anisotropy =    36.2264

     45  H    Isotropic =    31.0789   Anisotropy =     9.1113

     46  H    Isotropic =    30.6630   Anisotropy =     7.7512

     47  H    Isotropic =    29.7763   Anisotropy =    10.3720

 The electronic state is 1-A.
 Alpha  occ. eigenvalues --  -66.30132 -19.27140 -19.25248 -19.24985 -19.23079
 Alpha  occ. eigenvalues --  -10.31860 -10.30692 -10.30546 -10.30282 -10.30137
 Alpha  occ. eigenvalues --  -10.28116 -10.25475 -10.25058 -10.24431 -10.23414
 Alpha  occ. eigenvalues --  -10.23125 -10.22717 -10.22079 -10.22075  -5.33511
 Alpha  occ. eigenvalues --   -3.67428  -3.67143  -3.67105  -1.11532  -1.07195
 Alpha  occ. eigenvalues --   -1.05215  -1.02862  -0.84501  -0.81877  -0.77397
 Alpha  occ. eigenvalues --   -0.75325  -0.71943  -0.70159  -0.69984  -0.69838
 Alpha  occ. eigenvalues --   -0.69206  -0.69015  -0.63767  -0.61923  -0.59228
 Alpha  occ. eigenvalues --   -0.56359  -0.55049  -0.52485  -0.51840  -0.50717
 Alpha  occ. eigenvalues --   -0.48294  -0.48035  -0.47465  -0.46571  -0.45615
 Alpha  occ. eigenvalues --   -0.44386  -0.44227  -0.43950  -0.42794  -0.41884
 Alpha  occ. eigenvalues --   -0.41481  -0.41161  -0.40603  -0.40339  -0.39943
 Alpha  occ. eigenvalues --   -0.39610  -0.38822  -0.38522  -0.38407  -0.38232
 Alpha  occ. eigenvalues --   -0.36884  -0.36456  -0.35263  -0.34027  -0.33548
 Alpha  occ. eigenvalues --   -0.33244  -0.32770  -0.32449  -0.31734  -0.30264
 Alpha  occ. eigenvalues --   -0.30014  -0.28552  -0.26637  -0.25492
 Alpha virt. eigenvalues --   -0.00223   0.00868   0.01399   0.01541   0.02432
 Alpha virt. eigenvalues --    0.02966   0.03207   0.03772   0.03923   0.04612
 Alpha virt. eigenvalues --    0.04828   0.05478   0.05764   0.06172   0.06357

 Mulliken atomic charges:
              1
     1  H    0.145063
     2  C    0.445443
     3  C   -0.312761
     4  C   -0.023009
     5  C    0.242590
     6  C   -0.601520
     7  C   -0.594893
     8  H    0.194670
     9  H    0.185447
    10  H    0.147066
    11  H    0.177175
    12  H    0.171854
    13  H    0.172065
    14  C   -0.152241
    15  H    0.184146
    16  H    0.175582
    17  O   -0.401436
    18  O   -0.533330
    19  H    0.383644
    20  O   -0.197396
    21  C   -0.171130
    22  H    0.175754
    23  H    0.160740
    24  H    0.142747
    25  O   -0.216493
    26  Si   0.647445
    27  C   -0.735435
    28  H    0.186637
    29  H    0.185554
    30  H    0.208088
    31  C   -0.081825
    32  C   -0.706032
    33  H    0.185428
    34  H    0.184409
    35  H    0.180502
    36  C   -0.556152
    37  H    0.163341
    38  H    0.160779
    39  H    0.174432
    40  C   -0.517913
    41  H    0.169903
    42  H    0.164274
    43  H    0.165077
    44  C   -0.586678
    45  H    0.157173
    46  H    0.161587
    47  H    0.189626
 Sum of Mulliken atomic charges =   0.00000

 Dipole moment (field-independent basis, Debye):
    X=             -0.0844    Y=             -1.5546    Z=             -1.1738  Tot=              1.9498
 Quadrupole moment (field-independent basis, Debye-Ang):
   XX=           -127.9623   YY=           -122.9726   ZZ=           -123.1508
   XY=             -2.3349   XZ=              2.6749   YZ=             -4.7011

 Normal termination of Gaussian 09 at Tue Dec  6 16:26:27 2022.
