 Gaussian 09, Revision C.01,
 Gaussian 09:  EM64L-G09RevC.01 23-Sep-2011

 -----------------------------------------------------
 # mPW1PW91/6-31+g** scrf=(PCM,solvent=chloroform) nmr
 -----------------------------------------------------

 99/9=1/99;
 -------
 comment
 -------
 Charge =  0 Multiplicity = 1

                         Standard orientation:
 ---------------------------------------------------------------------
 Center     Atomic      Atomic             Coordinates (Angstroms)
 Number     Number       Type             X           Y           Z
 ---------------------------------------------------------------------
      1          1           0       -0.828037   -0.977176    0.332052
      2          6           0       -0.661778   -0.053810   -0.244657
      3          6           0       -2.754921   -0.207436   -1.724409
      4          6           0       -2.924994    0.590241    0.670555
      5          6           0       -3.310002   -0.487971   -0.342176
      6          6           0       -1.453885    1.041704    0.490182
      7          6           0       -1.202542   -0.253798   -1.674915
      8          1           0       -3.085253    0.789383   -2.038871
      9          1           0       -3.543358    1.473198    0.452255
     10          1           0       -1.021504    1.207310    1.487567
     11          1           0       -0.828658   -1.210253   -2.057385
     12          1           0       -3.158885   -0.926207   -2.444169
     13          1           0       -0.780517    0.532902   -2.306187
     14          8           0       -4.670273   -0.938946   -0.215562
     15          6           0       -3.605436   -1.863661    0.085656
     16          8           0       -3.119911    0.172590    2.015464
     17          1           0       -4.063749   -0.047482    2.092183
     18          8           0       -1.502623    2.266169   -0.233679
     19          6           0       -0.367524    3.108894   -0.105890
     20          1           0       -0.095360    3.248553    0.951505
     21          1           0        0.502977    2.717783   -0.642516
     22          1           0       -0.653758    4.076930   -0.527793
     23          8           0        0.730962    0.246007   -0.287696
     24         14           0        1.949524   -0.759501    0.300340
     25          6           0        1.759106   -0.972645    2.170539
     26          1           0        2.546405   -1.616358    2.581710
     27          1           0        0.797871   -1.437369    2.422429
     28          1           0        1.805389   -0.011335    2.694550
     29          6           0        3.580248    0.130875   -0.152503
     30          6           0        1.827519   -2.460249   -0.521017
     31          1           0        2.587664   -3.146621   -0.129085
     32          1           0        1.958788   -2.399008   -1.607194
     33          1           0        0.849962   -2.920368   -0.330994
     34          6           0        3.646283    0.360181   -1.677667
     35          1           0        4.576062    0.882531   -1.946255
     36          1           0        2.806253    0.967959   -2.031083
     37          1           0        3.632586   -0.585122   -2.234054
     38          6           0        4.784560   -0.733142    0.282400
     39          1           0        4.795025   -1.708874   -0.218874
     40          1           0        4.794932   -0.911888    1.364904
     41          1           0        5.727463   -0.227817    0.028278
     42          6           0        3.655036    1.495346    0.565105
     43          1           0        2.817527    2.145587    0.288580
     44          1           0        4.584551    2.018239    0.296306
     45          1           0        3.647572    1.384827    1.656246
     46          1           0       -3.490822   -2.680248   -0.628065
     47          1           0       -3.509730   -2.139780    1.133742
 ---------------------------------------------------------------------

 SCF Done:  E(RmPW1PW91) =  -1140.61604339     A.U. after   14 cycles

      1  H    Isotropic =    27.4833   Anisotropy =    10.2910

      2  C    Isotropic =   123.5696   Anisotropy =    56.1562

      3  C    Isotropic =   168.7524   Anisotropy =    22.2805

      4  C    Isotropic =   119.2145   Anisotropy =    30.5386

      5  C    Isotropic =   134.7121   Anisotropy =    59.3574

      6  C    Isotropic =   109.6984   Anisotropy =    34.9873

      7  C    Isotropic =   167.3640   Anisotropy =    34.0386

      8  H    Isotropic =    29.3656   Anisotropy =     7.6385

      9  H    Isotropic =    27.7021   Anisotropy =     3.5937

     10  H    Isotropic =    28.0999   Anisotropy =     1.8706

     11  H    Isotropic =    29.6942   Anisotropy =     7.1219

     12  H    Isotropic =    30.4599   Anisotropy =    10.6200

     13  H    Isotropic =    29.6001   Anisotropy =     5.8794

     14  O    Isotropic =   313.6853   Anisotropy =   113.2540

     15  C    Isotropic =   146.2387   Anisotropy =    34.0893

     16  O    Isotropic =   303.2340   Anisotropy =    71.7947

     17  H    Isotropic =    30.1850   Anisotropy =    18.9997

     18  O    Isotropic =   296.8609   Anisotropy =    55.7092

     19  C    Isotropic =   134.8539   Anisotropy =    83.7136

     20  H    Isotropic =    28.2321   Anisotropy =     7.8497

     21  H    Isotropic =    27.2388   Anisotropy =     7.3818

     22  H    Isotropic =    27.7845   Anisotropy =    10.4759

     23  O    Isotropic =   278.1289   Anisotropy =    24.7628

     24  Si   Isotropic =   379.0203   Anisotropy =    42.8925

     25  C    Isotropic =   200.4164   Anisotropy =     9.5639

     26  H    Isotropic =    31.6808   Anisotropy =    10.9309

     27  H    Isotropic =    31.2972   Anisotropy =     8.9039

     28  H    Isotropic =    31.4859   Anisotropy =     8.7129

     29  C    Isotropic =   174.2132   Anisotropy =     9.1125

     30  C    Isotropic =   200.6358   Anisotropy =     9.3891

     31  H    Isotropic =    31.6970   Anisotropy =    10.9322

     32  H    Isotropic =    31.5308   Anisotropy =     8.7737

     33  H    Isotropic =    31.3678   Anisotropy =     8.9457

     34  C    Isotropic =   170.6385   Anisotropy =    38.0339

     35  H    Isotropic =    31.0047   Anisotropy =     9.8384

     36  H    Isotropic =    30.2669   Anisotropy =     7.8494

     37  H    Isotropic =    30.5629   Anisotropy =     8.4554

     38  C    Isotropic =   170.4539   Anisotropy =    39.3219

     39  H    Isotropic =    30.7245   Anisotropy =     8.9914

     40  H    Isotropic =    30.7072   Anisotropy =     9.0449

     41  H    Isotropic =    30.9660   Anisotropy =    10.0754

     42  C    Isotropic =   170.5301   Anisotropy =    37.7304

     43  H    Isotropic =    30.4033   Anisotropy =     8.6721

     44  H    Isotropic =    30.9833   Anisotropy =     9.6993

     45  H    Isotropic =    30.5428   Anisotropy =     8.2708

     46  H    Isotropic =    28.9579   Anisotropy =     9.6252

     47  H    Isotropic =    28.5419   Anisotropy =     7.1232

 The electronic state is 1-A.
 Alpha  occ. eigenvalues --  -66.30474 -19.26917 -19.26091 -19.25400 -19.23588
 Alpha  occ. eigenvalues --  -10.31636 -10.31007 -10.30828 -10.30509 -10.30227
 Alpha  occ. eigenvalues --  -10.28301 -10.25495 -10.24996 -10.24933 -10.23734
 Alpha  occ. eigenvalues --  -10.23450 -10.23390 -10.22571 -10.22458  -5.33891
 Alpha  occ. eigenvalues --   -3.67800  -3.67514  -3.67496  -1.11528  -1.07426
 Alpha  occ. eigenvalues --   -1.06165  -1.03256  -0.85010  -0.82348  -0.77571
 Alpha  occ. eigenvalues --   -0.74486  -0.72292  -0.70580  -0.70320  -0.70011
 Alpha  occ. eigenvalues --   -0.69635  -0.69246  -0.64353  -0.62652  -0.57636
 Alpha  occ. eigenvalues --   -0.56311  -0.55538  -0.53774  -0.52483  -0.50935
 Alpha  occ. eigenvalues --   -0.48323  -0.48123  -0.47426  -0.46545  -0.45075
 Alpha  occ. eigenvalues --   -0.44703  -0.44531  -0.44415  -0.42960  -0.42735
 Alpha  occ. eigenvalues --   -0.42064  -0.41709  -0.40972  -0.40403  -0.40252
 Alpha  occ. eigenvalues --   -0.39931  -0.39530  -0.39121  -0.38909  -0.37447
 Alpha  occ. eigenvalues --   -0.37325  -0.36514  -0.35498  -0.34313  -0.34174
 Alpha  occ. eigenvalues --   -0.33596  -0.32935  -0.32722  -0.31895  -0.30530
 Alpha  occ. eigenvalues --   -0.28935  -0.28228  -0.27636  -0.26365
 Alpha virt. eigenvalues --   -0.00385   0.00952   0.01151   0.01308   0.02183
 Alpha virt. eigenvalues --    0.02877   0.03222   0.03860   0.04102   0.04340
 Alpha virt. eigenvalues --    0.05151   0.05202   0.05548   0.05856   0.06418

 Mulliken atomic charges:
              1
     1  H    0.147145
     2  C   -0.320284
     3  C   -0.249709
     4  C   -0.134721
     5  C   -0.254030
     6  C   -0.018423
     7  C   -0.310846
     8  H    0.196130
     9  H    0.190032
    10  H    0.158922
    11  H    0.173336
    12  H    0.175088
    13  H    0.186370
    14  O   -0.360125
    15  C    0.037436
    16  O   -0.514479
    17  H    0.387881
    18  O   -0.272439
    19  C   -0.130999
    20  H    0.141226
    21  H    0.166871
    22  H    0.161070
    23  O   -0.293187
    24  Si   0.801322
    25  C   -0.675709
    26  H    0.187684
    27  H    0.186179
    28  H    0.187002
    29  C   -0.001366
    30  C   -0.674172
    31  H    0.189136
    32  H    0.188067
    33  H    0.182549
    34  C   -0.579604
    35  H    0.163125
    36  H    0.178303
    37  H    0.164450
    38  C   -0.549298
    39  H    0.169682
    40  H    0.168376
    41  H    0.166921
    42  C   -0.568202
    43  H    0.173268
    44  H    0.163888
    45  H    0.165442
    46  H    0.172758
    47  H    0.177934
 Sum of Mulliken atomic charges =   0.00000

 Dipole moment (field-independent basis, Debye):
    X=              2.3488    Y=             -1.7593    Z=             -0.0964  Tot=              2.9362
 Quadrupole moment (field-independent basis, Debye-Ang):
   XX=           -136.5148   YY=           -120.5448   ZZ=           -127.3705
   XY=              2.2373   XZ=             -0.2952   YZ=              0.1636

 Normal termination of Gaussian 09 at Wed Dec  7 00:36:18 2022.
