 Gaussian 09, Revision C.01,
 Gaussian 09:  EM64L-G09RevC.01 23-Sep-2011

 -----------------------------------------------------
 # mPW1PW91/6-31+g** scrf=(PCM,solvent=chloroform) nmr
 -----------------------------------------------------

 99/9=1/99;
 -------
 comment
 -------
 Charge =  0 Multiplicity = 1

                         Standard orientation:
 ---------------------------------------------------------------------
 Center     Atomic      Atomic             Coordinates (Angstroms)
 Number     Number       Type             X           Y           Z
 ---------------------------------------------------------------------
      1          1           0        0.070645    0.381982   -2.060044
      2          6           0        0.487614   -0.097746   -1.164106
      3          6           0        1.813257   -2.113241   -0.354258
      4          6           0        2.277544    0.207226    0.599177
      5          6           0        2.847854   -1.150534    0.186901
      6          6           0        1.565252    0.854064   -0.597816
      7          6           0        1.099270   -1.454824   -1.548376
      8          1           0        1.080112   -2.341631    0.427869
      9          1           0        1.526548    0.036150    1.384825
     10          1           0        2.312740    1.034007   -1.388979
     11          1           0        1.810505   -1.306154   -2.372499
     12          1           0        2.288938   -3.055422   -0.646619
     13          1           0        0.300570   -2.104214   -1.921959
     14          8           0        3.834719   -1.654748    1.106954
     15          6           0        4.259541   -1.252906   -0.214449
     16          8           0        3.302199    1.065300    1.080986
     17          1           0        3.789216    0.536479    1.738101
     18          8           0        0.921724    2.075391   -0.271624
     19          6           0        1.743013    3.236312   -0.314490
     20          1           0        2.515818    3.215213    0.458853
     21          1           0        1.077922    4.088940   -0.152518
     22          1           0        2.223701    3.343568   -1.299364
     23          8           0       -0.540828   -0.334443   -0.214600
     24         14           0       -1.961069    0.530866    0.077986
     25          6           0       -1.779544    1.507838    1.681435
     26          1           0       -2.683172    2.085672    1.911074
     27          1           0       -0.939696    2.203356    1.589705
     28          1           0       -1.578191    0.850711    2.535349
     29          6           0       -3.323268   -0.811097    0.250732
     30          6           0       -2.329033    1.702235   -1.359557
     31          1           0       -3.262524    2.250376   -1.183905
     32          1           0       -2.431057    1.178212   -2.317094
     33          1           0       -1.522394    2.435691   -1.458355
     34          6           0       -3.475920   -1.581576   -1.077507
     35          1           0       -3.795945   -0.926686   -1.897275
     36          1           0       -4.232407   -2.374071   -0.979390
     37          1           0       -2.535312   -2.059051   -1.376697
     38          6           0       -4.672550   -0.152241    0.609168
     39          1           0       -5.001316    0.558470   -0.159660
     40          1           0       -4.625903    0.385773    1.563700
     41          1           0       -5.459878   -0.914468    0.703256
     42          6           0       -2.936376   -1.809587    1.362453
     43          1           0       -3.699592   -2.596479    1.456319
     44          1           0       -2.851506   -1.321813    2.341175
     45          1           0       -1.979225   -2.298446    1.148513
     46          1           0        4.572482   -2.072771   -0.860929
     47          1           0        4.881453   -0.361055   -0.244828
 ---------------------------------------------------------------------

 SCF Done:  E(RmPW1PW91) =  -1140.62541577     A.U. after   13 cycles

      1  H    Isotropic =    27.4142   Anisotropy =     3.8811

      2  C    Isotropic =   122.0464   Anisotropy =    37.8240

      3  C    Isotropic =   168.1214   Anisotropy =    29.1350

      4  C    Isotropic =   122.7283   Anisotropy =    39.5286

      5  C    Isotropic =   133.5561   Anisotropy =    59.8627

      6  C    Isotropic =   111.0946   Anisotropy =    40.4376

      7  C    Isotropic =   163.2059   Anisotropy =    20.2066

      8  H    Isotropic =    29.1733   Anisotropy =     6.4614

      9  H    Isotropic =    27.1565   Anisotropy =     6.8642

     10  H    Isotropic =    28.5066   Anisotropy =     3.2699

     11  H    Isotropic =    30.0098   Anisotropy =     9.0780

     12  H    Isotropic =    30.4871   Anisotropy =    10.9155

     13  H    Isotropic =    29.7083   Anisotropy =     8.8730

     14  O    Isotropic =   315.5386   Anisotropy =   110.0429

     15  C    Isotropic =   146.3554   Anisotropy =    33.9599

     16  O    Isotropic =   312.1047   Anisotropy =    44.4364

     17  H    Isotropic =    29.6502   Anisotropy =    17.5022

     18  O    Isotropic =   296.0333   Anisotropy =    68.0906

     19  C    Isotropic =   136.8908   Anisotropy =    85.7498

     20  H    Isotropic =    27.2163   Anisotropy =     8.8799

     21  H    Isotropic =    27.8751   Anisotropy =    10.6187

     22  H    Isotropic =    28.3333   Anisotropy =    10.3196

     23  O    Isotropic =   287.0311   Anisotropy =    20.0632

     24  Si   Isotropic =   377.7872   Anisotropy =    32.0990

     25  C    Isotropic =   198.7493   Anisotropy =     8.7606

     26  H    Isotropic =    31.7335   Anisotropy =    10.9416

     27  H    Isotropic =    30.9086   Anisotropy =    10.0836

     28  H    Isotropic =    31.2865   Anisotropy =     8.2551

     29  C    Isotropic =   172.5859   Anisotropy =     7.2889

     30  C    Isotropic =   201.1215   Anisotropy =     4.8164

     31  H    Isotropic =    31.6991   Anisotropy =    10.6960

     32  H    Isotropic =    31.4458   Anisotropy =     8.7929

     33  H    Isotropic =    31.0509   Anisotropy =     9.6705

     34  C    Isotropic =   170.3234   Anisotropy =    37.5594

     35  H    Isotropic =    30.6403   Anisotropy =     8.3106

     36  H    Isotropic =    31.0505   Anisotropy =     9.8216

     37  H    Isotropic =    30.4121   Anisotropy =     7.8028

     38  C    Isotropic =   170.3576   Anisotropy =    38.9011

     39  H    Isotropic =    30.7241   Anisotropy =     9.0379

     40  H    Isotropic =    30.6980   Anisotropy =     8.8794

     41  H    Isotropic =    30.9266   Anisotropy =    10.2501

     42  C    Isotropic =   170.3799   Anisotropy =    37.5225

     43  H    Isotropic =    31.0454   Anisotropy =     9.7954

     44  H    Isotropic =    30.4889   Anisotropy =     8.3118

     45  H    Isotropic =    30.2165   Anisotropy =     8.1440

     46  H    Isotropic =    28.9847   Anisotropy =    10.8597

     47  H    Isotropic =    28.4199   Anisotropy =     8.0597

 The electronic state is 1-A.
 Alpha  occ. eigenvalues --  -66.30041 -19.27074 -19.25532 -19.25345 -19.23116
 Alpha  occ. eigenvalues --  -10.31670 -10.30903 -10.30558 -10.30511 -10.30194
 Alpha  occ. eigenvalues --  -10.28287 -10.25403 -10.25358 -10.24337 -10.23378
 Alpha  occ. eigenvalues --  -10.23185 -10.23067 -10.22029 -10.21563  -5.33396
 Alpha  occ. eigenvalues --   -3.67320  -3.67024  -3.66989  -1.11620  -1.07524
 Alpha  occ. eigenvalues --   -1.05522  -1.02926  -0.84906  -0.81918  -0.77632
 Alpha  occ. eigenvalues --   -0.75079  -0.71759  -0.70182  -0.70061  -0.69822
 Alpha  occ. eigenvalues --   -0.69272  -0.69086  -0.63349  -0.62529  -0.58694
 Alpha  occ. eigenvalues --   -0.56141  -0.55097  -0.52541  -0.52187  -0.51668
 Alpha  occ. eigenvalues --   -0.49004  -0.47955  -0.47201  -0.46296  -0.45377
 Alpha  occ. eigenvalues --   -0.44339  -0.44301  -0.43987  -0.43380  -0.42607
 Alpha  occ. eigenvalues --   -0.41676  -0.41001  -0.40480  -0.40181  -0.39769
 Alpha  occ. eigenvalues --   -0.39384  -0.39079  -0.38791  -0.38481  -0.37625
 Alpha  occ. eigenvalues --   -0.36991  -0.36522  -0.35833  -0.34085  -0.33528
 Alpha  occ. eigenvalues --   -0.33431  -0.32846  -0.31860  -0.31188  -0.30409
 Alpha  occ. eigenvalues --   -0.29368  -0.28366  -0.27201  -0.25952
 Alpha virt. eigenvalues --   -0.00060   0.00552   0.01289   0.01499   0.02316
 Alpha virt. eigenvalues --    0.02962   0.03274   0.03730   0.03991   0.04896
 Alpha virt. eigenvalues --    0.05092   0.05454   0.05729   0.06108   0.06373

 Mulliken atomic charges:
              1
     1  H    0.151124
     2  C    0.114649
     3  C   -0.178403
     4  C    0.332294
     5  C   -0.368031
     6  C   -0.340167
     7  C   -0.417641
     8  H    0.193524
     9  H    0.181695
    10  H    0.148742
    11  H    0.173804
    12  H    0.169941
    13  H    0.173390
    14  O   -0.384769
    15  C   -0.114724
    16  O   -0.563841
    17  H    0.399714
    18  O   -0.237404
    19  C   -0.162698
    20  H    0.177638
    21  H    0.161297
    22  H    0.143059
    23  O   -0.306988
    24  Si   0.708360
    25  C   -0.726123
    26  H    0.180079
    27  H    0.205242
    28  H    0.180709
    29  C   -0.008598
    30  C   -0.733147
    31  H    0.186159
    32  H    0.182835
    33  H    0.205817
    34  C   -0.585818
    35  H    0.163567
    36  H    0.161529
    37  H    0.171249
    38  C   -0.540812
    39  H    0.165478
    40  H    0.168454
    41  H    0.163791
    42  C   -0.554548
    43  H    0.160521
    44  H    0.164397
    45  H    0.177011
    46  H    0.173468
    47  H    0.184175
 Sum of Mulliken atomic charges =   0.00000

 Dipole moment (field-independent basis, Debye):
    X=              0.5098    Y=              0.2566    Z=             -2.9421  Tot=              2.9970
 Quadrupole moment (field-independent basis, Debye-Ang):
   XX=           -124.4895   YY=           -126.1787   ZZ=           -124.4836
   XY=             -0.0072   XZ=             -8.2231   YZ=              2.9642

 Normal termination of Gaussian 09 at Wed Dec  7 00:23:39 2022.
