 Gaussian 09, Revision C.01,
 Gaussian 09:  EM64L-G09RevC.01 23-Sep-2011

 -----------------------------------------------------
 # mPW1PW91/6-31+g** scrf=(PCM,solvent=chloroform) nmr
 -----------------------------------------------------

 99/9=1/99;
 -------
 comment
 -------
 Charge =  0 Multiplicity = 1

                         Standard orientation:
 ---------------------------------------------------------------------
 Center     Atomic      Atomic             Coordinates (Angstroms)
 Number     Number       Type             X           Y           Z
 ---------------------------------------------------------------------
      1          1           0       -0.909041   -1.766044    1.135458
      2          6           0       -0.554150   -0.904479    0.553335
      3          6           0       -2.376301   -1.419481   -1.123962
      4          6           0       -2.872965    0.050479    0.910140
      5          6           0       -3.218386   -0.308835   -0.526312
      6          6           0       -1.353479    0.312582    1.057331
      7          6           0       -0.868151   -1.171760   -0.926266
      8          1           0       -2.610696   -1.514673   -2.189566
      9          1           0       -3.435623    0.953461    1.184966
     10          1           0       -1.122343    0.463734    2.128463
     11          1           0       -0.308986   -2.048444   -1.267509
     12          1           0       -2.662943   -2.360747   -0.637286
     13          1           0       -0.550699   -0.314622   -1.528034
     14          8           0       -3.458713    0.839280   -1.363756
     15          6           0       -4.564843   -0.014486   -1.031670
     16          8           0       -3.279115   -1.051909    1.726091
     17          1           0       -2.991679   -0.869285    2.635123
     18          8           0       -0.922154    1.440809    0.318681
     19          6           0       -1.439456    2.693732    0.732310
     20          1           0       -2.471587    2.843028    0.391836
     21          1           0       -0.805877    3.458044    0.274993
     22          1           0       -1.394708    2.806275    1.826947
     23          8           0        0.809024   -0.717140    0.866934
     24         14           0        2.341157   -0.821001    0.208938
     25          6           0        3.410629   -1.381092    1.662179
     26          1           0        4.469581   -1.461131    1.389604
     27          1           0        3.082691   -2.367236    2.012151
     28          1           0        3.332540   -0.690190    2.508898
     29          6           0        2.923215    0.891126   -0.437875
     30          6           0        2.472108   -2.130005   -1.155636
     31          1           0        3.526697   -2.305270   -1.402285
     32          1           0        1.960996   -1.848135   -2.081969
     33          1           0        2.055758   -3.087425   -0.819581
     34          6           0        2.075154    1.345137   -1.644638
     35          1           0        2.132349    0.635373   -2.479707
     36          1           0        2.437602    2.313865   -2.020427
     37          1           0        1.022751    1.470478   -1.369864
     38          6           0        4.403270    0.802759   -0.871674
     39          1           0        4.552850    0.082763   -1.686148
     40          1           0        5.062059    0.514313   -0.043452
     41          1           0        4.750486    1.780350   -1.237106
     42          6           0        2.785143    1.941592    0.684754
     43          1           0        3.116923    2.928379    0.328559
     44          1           0        3.395785    1.690400    1.560969
     45          1           0        1.743858    2.033842    1.010552
     46          1           0       -4.966226   -0.599145   -1.859762
     47          1           0       -5.311788    0.420121   -0.366656
 ---------------------------------------------------------------------

 SCF Done:  E(RmPW1PW91) =  -1140.61392763     A.U. after   13 cycles

      1  H    Isotropic =    26.9001   Anisotropy =     7.2283

      2  C    Isotropic =   122.8679   Anisotropy =    58.3703

      3  C    Isotropic =   166.5719   Anisotropy =    21.5855

      4  C    Isotropic =   121.8023   Anisotropy =    40.7433

      5  C    Isotropic =   138.2318   Anisotropy =    56.7437

      6  C    Isotropic =   110.4109   Anisotropy =    42.3339

      7  C    Isotropic =   166.5814   Anisotropy =    23.6923

      8  H    Isotropic =    30.5002   Anisotropy =    10.1231

      9  H    Isotropic =    27.8608   Anisotropy =     3.6936

     10  H    Isotropic =    28.1806   Anisotropy =     3.7213

     11  H    Isotropic =    29.8646   Anisotropy =    10.4368

     12  H    Isotropic =    29.1970   Anisotropy =     8.2522

     13  H    Isotropic =    29.2421   Anisotropy =     6.0217

     14  O    Isotropic =   298.9631   Anisotropy =   137.6690

     15  C    Isotropic =   146.1791   Anisotropy =    43.3394

     16  O    Isotropic =   299.3430   Anisotropy =    90.9381

     17  H    Isotropic =    30.8869   Anisotropy =    18.9188

     18  O    Isotropic =   309.5477   Anisotropy =    55.8886

     19  C    Isotropic =   140.3350   Anisotropy =    80.2701

     20  H    Isotropic =    27.8472   Anisotropy =     8.9641

     21  H    Isotropic =    27.8276   Anisotropy =     9.7181

     22  H    Isotropic =    28.6234   Anisotropy =     9.9794

     23  O    Isotropic =   285.5370   Anisotropy =    65.4345

     24  Si   Isotropic =   384.0926   Anisotropy =    32.6529

     25  C    Isotropic =   197.8731   Anisotropy =     9.2369

     26  H    Isotropic =    31.7110   Anisotropy =    10.5263

     27  H    Isotropic =    31.5519   Anisotropy =     9.8365

     28  H    Isotropic =    31.3546   Anisotropy =     8.6405

     29  C    Isotropic =   172.3925   Anisotropy =     9.5491

     30  C    Isotropic =   196.8436   Anisotropy =     6.9550

     31  H    Isotropic =    31.5598   Anisotropy =    10.7772

     32  H    Isotropic =    31.2210   Anisotropy =     6.7769

     33  H    Isotropic =    31.4311   Anisotropy =     9.0408

     34  C    Isotropic =   170.8694   Anisotropy =    37.2082

     35  H    Isotropic =    30.5617   Anisotropy =     7.5352

     36  H    Isotropic =    31.0884   Anisotropy =     8.7529

     37  H    Isotropic =    29.6819   Anisotropy =    11.2498

     38  C    Isotropic =   169.5427   Anisotropy =    40.6975

     39  H    Isotropic =    30.7633   Anisotropy =     8.9827

     40  H    Isotropic =    30.7262   Anisotropy =     9.3518

     41  H    Isotropic =    30.9592   Anisotropy =    10.0350

     42  C    Isotropic =   170.8968   Anisotropy =    37.2650

     43  H    Isotropic =    31.0874   Anisotropy =     9.0548

     44  H    Isotropic =    30.5896   Anisotropy =     8.6725

     45  H    Isotropic =    30.0809   Anisotropy =     9.3598

     46  H    Isotropic =    29.0420   Anisotropy =    11.2580

     47  H    Isotropic =    28.9623   Anisotropy =    10.9969

 The electronic state is 1-A.
 Alpha  occ. eigenvalues --  -66.30312 -19.26452 -19.26390 -19.25347 -19.22904
 Alpha  occ. eigenvalues --  -10.31510 -10.31123 -10.30630 -10.30471 -10.30041
 Alpha  occ. eigenvalues --  -10.28663 -10.25363 -10.24564 -10.24197 -10.23278
 Alpha  occ. eigenvalues --  -10.22752 -10.22644 -10.22206 -10.21862  -5.33609
 Alpha  occ. eigenvalues --   -3.67539  -3.67254  -3.67191  -1.11135  -1.07623
 Alpha  occ. eigenvalues --   -1.06434  -1.02800  -0.84292  -0.81715  -0.77461
 Alpha  occ. eigenvalues --   -0.75513  -0.72023  -0.70418  -0.69959  -0.69768
 Alpha  occ. eigenvalues --   -0.69051  -0.68547  -0.64974  -0.62469  -0.57477
 Alpha  occ. eigenvalues --   -0.56529  -0.54346  -0.53378  -0.52336  -0.51088
 Alpha  occ. eigenvalues --   -0.49181  -0.48379  -0.47221  -0.45901  -0.44823
 Alpha  occ. eigenvalues --   -0.44113  -0.43849  -0.43624  -0.43039  -0.42776
 Alpha  occ. eigenvalues --   -0.42194  -0.41009  -0.40829  -0.40233  -0.39733
 Alpha  occ. eigenvalues --   -0.39578  -0.39220  -0.38651  -0.38385  -0.38164
 Alpha  occ. eigenvalues --   -0.36799  -0.36425  -0.35379  -0.34417  -0.33412
 Alpha  occ. eigenvalues --   -0.32966  -0.32480  -0.31733  -0.31496  -0.29812
 Alpha  occ. eigenvalues --   -0.29170  -0.28380  -0.26770  -0.25639
 Alpha virt. eigenvalues --   -0.00211   0.00485   0.01345   0.01473   0.02605
 Alpha virt. eigenvalues --    0.02843   0.02989   0.03919   0.03968   0.04696
 Alpha virt. eigenvalues --    0.04843   0.05231   0.05543   0.06039   0.06378

 Mulliken atomic charges:
              1
     1  H    0.164842
     2  C   -0.355196
     3  C   -0.675986
     4  C    0.125740
     5  C    0.162861
     6  C   -0.213840
     7  C   -0.108948
     8  H    0.173646
     9  H    0.147985
    10  H    0.141314
    11  H    0.172036
    12  H    0.191145
    13  H    0.195698
    14  O   -0.303818
    15  C   -0.064141
    16  O   -0.493520
    17  H    0.376840
    18  O   -0.189896
    19  C   -0.222384
    20  H    0.164043
    21  H    0.167670
    22  H    0.147270
    23  O   -0.290580
    24  Si   0.825066
    25  C   -0.703499
    26  H    0.181546
    27  H    0.183741
    28  H    0.184386
    29  C   -0.046428
    30  C   -0.728975
    31  H    0.187603
    32  H    0.189512
    33  H    0.185223
    34  C   -0.602488
    35  H    0.159116
    36  H    0.156291
    37  H    0.191480
    38  C   -0.507279
    39  H    0.166310
    40  H    0.165363
    41  H    0.163795
    42  C   -0.606855
    43  H    0.156468
    44  H    0.160996
    45  H    0.184496
    46  H    0.171600
    47  H    0.169752
 Sum of Mulliken atomic charges =   0.00000

 Dipole moment (field-independent basis, Debye):
    X=             -1.3032    Y=             -0.6009    Z=              1.6129  Tot=              2.1589
 Quadrupole moment (field-independent basis, Debye-Ang):
   XX=           -121.5833   YY=           -124.4354   ZZ=           -122.7287
   XY=             -1.4394   XZ=             -5.3404   YZ=              7.1162

 Normal termination of Gaussian 09 at Tue Dec  6 21:59:00 2022.
