 Gaussian 09, Revision C.01,
 Gaussian 09:  EM64L-G09RevC.01 23-Sep-2011

 -----------------------------------------------------
 # mPW1PW91/6-31+g** scrf=(PCM,solvent=chloroform) nmr
 -----------------------------------------------------

 99/9=1/99;
 -------
 comment
 -------
 Charge =  0 Multiplicity = 1

                         Standard orientation:
 ---------------------------------------------------------------------
 Center     Atomic      Atomic             Coordinates (Angstroms)
 Number     Number       Type             X           Y           Z
 ---------------------------------------------------------------------
      1          1           0       -0.739924   -1.408633    1.423698
      2          6           0       -0.523973   -0.742664    0.578874
      3          6           0       -2.480434   -1.816686   -0.614473
      4          6           0       -2.852729    0.166126    0.962746
      5          6           0       -3.331680   -0.614561   -0.252076
      6          6           0       -1.351219    0.530828    0.828936
      7          6           0       -0.989233   -1.445384   -0.706471
      8          1           0       -2.833799   -2.233762   -1.563521
      9          1           0       -3.452276    1.083771    1.041224
     10          1           0       -1.018113    0.995717    1.776213
     11          1           0       -0.382432   -2.345539   -0.854586
     12          1           0       -2.626848   -2.582055    0.158773
     13          1           0       -0.827133   -0.787498   -1.565343
     14          8           0       -3.751743    0.229141   -1.343385
     15          6           0       -4.745501   -0.531229   -0.637901
     16          8           0       -3.070490   -0.665238    2.105166
     17          1           0       -2.709259   -0.206723    2.880732
     18          8           0       -1.097488    1.421536   -0.244263
     19          6           0       -1.696230    2.704027   -0.150428
     20          1           0       -2.761060    2.673696   -0.409667
     21          1           0       -1.178584    3.343548   -0.870250
     22          1           0       -1.574411    3.133474    0.856156
     23          8           0        0.870129   -0.519789    0.615931
     24         14           0        2.000498    0.426633   -0.186713
     25          6           0        1.642080    0.626693   -2.031154
     26          1           0        2.417756    1.237680   -2.509507
     27          1           0        0.681080    1.129506   -2.176240
     28          1           0        1.604338   -0.333395   -2.557675
     29          6           0        3.636390   -0.539011    0.090393
     30          6           0        2.118451    2.138362    0.611877
     31          1           0        2.985600    2.693939    0.233697
     32          1           0        2.219488    2.069261    1.701147
     33          1           0        1.224186    2.730899    0.393888
     34          6           0        3.930155   -0.651692    1.601855
     35          1           0        4.068837    0.332596    2.065904
     36          1           0        4.853322   -1.225455    1.772585
     37          1           0        3.117988   -1.161266    2.132133
     38          6           0        4.810764    0.190777   -0.597212
     39          1           0        4.952865    1.206122   -0.206423
     40          1           0        4.670175    0.266525   -1.682669
     41          1           0        5.751180   -0.354622   -0.429678
     42          6           0        3.516663   -1.960645   -0.498616
     43          1           0        4.444167   -2.527236   -0.328059
     44          1           0        3.342422   -1.943232   -1.581848
     45          1           0        2.695395   -2.518586   -0.035397
     46          1           0       -5.194844   -1.347322   -1.204061
     47          1           0       -5.441396    0.050881   -0.032952
 ---------------------------------------------------------------------

 SCF Done:  E(RmPW1PW91) =  -1140.61738333     A.U. after   13 cycles

      1  H    Isotropic =    27.0282   Anisotropy =     6.9919

      2  C    Isotropic =   122.7217   Anisotropy =    59.2815

      3  C    Isotropic =   165.0398   Anisotropy =    22.4786

      4  C    Isotropic =   120.8543   Anisotropy =    37.5435

      5  C    Isotropic =   138.3950   Anisotropy =    58.1622

      6  C    Isotropic =   111.2844   Anisotropy =    44.0171

      7  C    Isotropic =   166.8834   Anisotropy =    26.0693

      8  H    Isotropic =    30.5384   Anisotropy =    10.5211

      9  H    Isotropic =    27.8707   Anisotropy =     3.5399

     10  H    Isotropic =    28.1125   Anisotropy =     3.3080

     11  H    Isotropic =    29.9561   Anisotropy =     8.2420

     12  H    Isotropic =    29.2115   Anisotropy =     8.2590

     13  H    Isotropic =    29.2720   Anisotropy =     6.1257

     14  O    Isotropic =   300.3268   Anisotropy =   134.7803

     15  C    Isotropic =   145.2488   Anisotropy =    41.7186

     16  O    Isotropic =   298.0917   Anisotropy =    88.6578

     17  H    Isotropic =    30.8581   Anisotropy =    18.9769

     18  O    Isotropic =   308.7410   Anisotropy =    52.0884

     19  C    Isotropic =   140.3545   Anisotropy =    79.4301

     20  H    Isotropic =    27.7881   Anisotropy =     8.8634

     21  H    Isotropic =    27.8353   Anisotropy =     9.9104

     22  H    Isotropic =    28.6457   Anisotropy =     9.6565

     23  O    Isotropic =   280.8200   Anisotropy =    57.3031

     24  Si   Isotropic =   383.0908   Anisotropy =    30.5082

     25  C    Isotropic =   197.9552   Anisotropy =     7.1169

     26  H    Isotropic =    31.6999   Anisotropy =    10.5634

     27  H    Isotropic =    30.8564   Anisotropy =     9.4901

     28  H    Isotropic =    31.4100   Anisotropy =     7.8117

     29  C    Isotropic =   172.6905   Anisotropy =     8.1001

     30  C    Isotropic =   198.3403   Anisotropy =     8.2702

     31  H    Isotropic =    31.6512   Anisotropy =    10.5050

     32  H    Isotropic =    31.5015   Anisotropy =     8.5181

     33  H    Isotropic =    31.3222   Anisotropy =     9.8886

     34  C    Isotropic =   170.1341   Anisotropy =    38.5918

     35  H    Isotropic =    30.5813   Anisotropy =     8.4322

     36  H    Isotropic =    31.0661   Anisotropy =     9.8883

     37  H    Isotropic =    30.2844   Anisotropy =     7.7204

     38  C    Isotropic =   170.0615   Anisotropy =    39.4705

     39  H    Isotropic =    30.7012   Anisotropy =     8.8459

     40  H    Isotropic =    30.7535   Anisotropy =     8.6691

     41  H    Isotropic =    30.9590   Anisotropy =    10.1555

     42  C    Isotropic =   170.1719   Anisotropy =    37.9264

     43  H    Isotropic =    31.0607   Anisotropy =     9.8113

     44  H    Isotropic =    30.5740   Anisotropy =     7.9948

     45  H    Isotropic =    30.2798   Anisotropy =     7.6752

     46  H    Isotropic =    28.9908   Anisotropy =    11.3894

     47  H    Isotropic =    28.8792   Anisotropy =    11.0088

 The electronic state is 1-A.
 Alpha  occ. eigenvalues --  -66.30051 -19.26513 -19.26483 -19.25788 -19.22955
 Alpha  occ. eigenvalues --  -10.31575 -10.31307 -10.30733 -10.30461 -10.30094
 Alpha  occ. eigenvalues --  -10.28950 -10.25281 -10.24363 -10.24161 -10.23268
 Alpha  occ. eigenvalues --  -10.22950 -10.22933 -10.21725 -10.21664  -5.33351
 Alpha  occ. eigenvalues --   -3.67275  -3.66976  -3.66958  -1.11180  -1.07886
 Alpha  occ. eigenvalues --   -1.06620  -1.02775  -0.84289  -0.81759  -0.77531
 Alpha  occ. eigenvalues --   -0.75434  -0.71804  -0.70579  -0.69990  -0.69805
 Alpha  occ. eigenvalues --   -0.68982  -0.68608  -0.64892  -0.62551  -0.57637
 Alpha  occ. eigenvalues --   -0.56665  -0.54622  -0.53130  -0.52308  -0.51126
 Alpha  occ. eigenvalues --   -0.49125  -0.48519  -0.46950  -0.46278  -0.44670
 Alpha  occ. eigenvalues --   -0.44196  -0.44181  -0.43517  -0.43437  -0.42372
 Alpha  occ. eigenvalues --   -0.41788  -0.41385  -0.40665  -0.40231  -0.39614
 Alpha  occ. eigenvalues --   -0.39515  -0.39123  -0.38640  -0.38486  -0.38381
 Alpha  occ. eigenvalues --   -0.36858  -0.36363  -0.35343  -0.34542  -0.33544
 Alpha  occ. eigenvalues --   -0.33252  -0.32614  -0.31648  -0.31482  -0.29796
 Alpha  occ. eigenvalues --   -0.29054  -0.27750  -0.27364  -0.26038
 Alpha virt. eigenvalues --   -0.00175   0.00489   0.01250   0.01421   0.02581
 Alpha virt. eigenvalues --    0.02858   0.03005   0.03970   0.04188   0.04548
 Alpha virt. eigenvalues --    0.04876   0.05259   0.05585   0.05977   0.06492

 Mulliken atomic charges:
              1
     1  H    0.165716
     2  C   -0.135704
     3  C   -0.626059
     4  C    0.090015
     5  C    0.220262
     6  C   -0.296902
     7  C   -0.180291
     8  H    0.172502
     9  H    0.147946
    10  H    0.142325
    11  H    0.171999
    12  H    0.189943
    13  H    0.192772
    14  O   -0.310288
    15  C   -0.058936
    16  O   -0.491030
    17  H    0.377139
    18  O   -0.255508
    19  C   -0.212973
    20  H    0.169085
    21  H    0.168111
    22  H    0.149571
    23  O   -0.376377
    24  Si   0.771901
    25  C   -0.704299
    26  H    0.181276
    27  H    0.207730
    28  H    0.183432
    29  C   -0.000801
    30  C   -0.742475
    31  H    0.178682
    32  H    0.180491
    33  H    0.189264
    34  C   -0.581480
    35  H    0.163812
    36  H    0.159322
    37  H    0.177547
    38  C   -0.537463
    39  H    0.163954
    40  H    0.167041
    41  H    0.162887
    42  C   -0.574541
    43  H    0.159413
    44  H    0.162459
    45  H    0.176728
    46  H    0.172314
    47  H    0.169484
 Sum of Mulliken atomic charges =   0.00000

 Dipole moment (field-independent basis, Debye):
    X=             -1.7047    Y=              1.2404    Z=              1.7314  Tot=              2.7281
 Quadrupole moment (field-independent basis, Debye-Ang):
   XX=           -123.8437   YY=           -121.3092   ZZ=           -125.9791
   XY=              0.3068   XZ=             -6.1343   YZ=              6.3474

 Normal termination of Gaussian 09 at Tue Dec  6 23:06:30 2022.
