 Gaussian 09, Revision C.01,
 Gaussian 09:  EM64L-G09RevC.01 23-Sep-2011

 -----------------------------------------------------
 # mPW1PW91/6-31+g** scrf=(PCM,solvent=chloroform) nmr
 -----------------------------------------------------

 99/9=1/99;
 -------
 comment
 -------
 Charge =  0 Multiplicity = 1

                         Standard orientation:
 ---------------------------------------------------------------------
 Center     Atomic      Atomic             Coordinates (Angstroms)
 Number     Number       Type             X           Y           Z
 ---------------------------------------------------------------------
      1          1           0        0.070639    0.381985   -2.060034
      2          6           0        0.487611   -0.097744   -1.164098
      3          6           0        1.813253   -2.113240   -0.354253
      4          6           0        2.277552    0.207228    0.599176
      5          6           0        2.847855   -1.150536    0.186900
      6          6           0        1.565253    0.854066   -0.597813
      7          6           0        1.099263   -1.454823   -1.548370
      8          1           0        1.080110   -2.341628    0.427876
      9          1           0        1.526561    0.036156    1.384830
     10          1           0        2.312738    1.034007   -1.388980
     11          1           0        1.810495   -1.306156   -2.372495
     12          1           0        2.288931   -3.055424   -0.646615
     13          1           0        0.300560   -2.104212   -1.921950
     14          8           0        3.834721   -1.654752    1.106952
     15          6           0        4.259540   -1.252915   -0.214453
     16          8           0        3.302214    1.065299    1.080975
     17          1           0        3.789231    0.536480    1.738092
     18          8           0        0.921726    2.075393   -0.271621
     19          6           0        1.743018    3.236313   -0.314481
     20          1           0        2.515812    3.215217    0.458874
     21          1           0        1.077925    4.088942   -0.152524
     22          1           0        2.223722    3.343562   -1.299347
     23          8           0       -0.540825   -0.334437   -0.214585
     24         14           0       -1.961074    0.530867    0.077983
     25          6           0       -1.779566    1.507862    1.681419
     26          1           0       -2.683183    2.085731    1.911015
     27          1           0       -0.939693    2.203350    1.589698
     28          1           0       -1.578263    0.850749    2.535356
     29          6           0       -3.323267   -0.811101    0.250734
     30          6           0       -2.329029    1.702224   -1.359573
     31          1           0       -3.262540    2.250340   -1.183949
     32          1           0       -2.431009    1.178201   -2.317114
     33          1           0       -1.522405    2.435700   -1.458344
     34          6           0       -3.475929   -1.581573   -1.077508
     35          1           0       -3.795961   -0.926680   -1.897269
     36          1           0       -4.232412   -2.374071   -0.979389
     37          1           0       -2.535322   -2.059045   -1.376708
     38          6           0       -4.672547   -0.152249    0.609184
     39          1           0       -5.001319    0.558468   -0.159635
     40          1           0       -4.625894    0.385758    1.563720
     41          1           0       -5.459875   -0.914477    0.703271
     42          6           0       -2.936364   -1.809595    1.362448
     43          1           0       -3.699579   -2.596487    1.456318
     44          1           0       -2.851484   -1.321825    2.341171
     45          1           0       -1.979214   -2.298452    1.148496
     46          1           0        4.572475   -2.072783   -0.860933
     47          1           0        4.881456   -0.361066   -0.244836
 ---------------------------------------------------------------------

 SCF Done:  E(RmPW1PW91) =  -1140.62541576     A.U. after   13 cycles

      1  H    Isotropic =    27.4142   Anisotropy =     3.8810

      2  C    Isotropic =   122.0463   Anisotropy =    37.8239

      3  C    Isotropic =   168.1213   Anisotropy =    29.1350

      4  C    Isotropic =   122.7282   Anisotropy =    39.5284

      5  C    Isotropic =   133.5561   Anisotropy =    59.8628

      6  C    Isotropic =   111.0945   Anisotropy =    40.4376

      7  C    Isotropic =   163.2059   Anisotropy =    20.2065

      8  H    Isotropic =    29.1733   Anisotropy =     6.4614

      9  H    Isotropic =    27.1565   Anisotropy =     6.8641

     10  H    Isotropic =    28.5066   Anisotropy =     3.2699

     11  H    Isotropic =    30.0099   Anisotropy =     9.0780

     12  H    Isotropic =    30.4870   Anisotropy =    10.9154

     13  H    Isotropic =    29.7083   Anisotropy =     8.8729

     14  O    Isotropic =   315.5387   Anisotropy =   110.0433

     15  C    Isotropic =   146.3553   Anisotropy =    33.9598

     16  O    Isotropic =   312.1044   Anisotropy =    44.4366

     17  H    Isotropic =    29.6502   Anisotropy =    17.5022

     18  O    Isotropic =   296.0329   Anisotropy =    68.0903

     19  C    Isotropic =   136.8906   Anisotropy =    85.7498

     20  H    Isotropic =    27.2163   Anisotropy =     8.8799

     21  H    Isotropic =    27.8751   Anisotropy =    10.6187

     22  H    Isotropic =    28.3333   Anisotropy =    10.3196

     23  O    Isotropic =   287.0312   Anisotropy =    20.0625

     24  Si   Isotropic =   377.7870   Anisotropy =    32.0993

     25  C    Isotropic =   198.7495   Anisotropy =     8.7606

     26  H    Isotropic =    31.7335   Anisotropy =    10.9415

     27  H    Isotropic =    30.9086   Anisotropy =    10.0837

     28  H    Isotropic =    31.2864   Anisotropy =     8.2553

     29  C    Isotropic =   172.5859   Anisotropy =     7.2889

     30  C    Isotropic =   201.1215   Anisotropy =     4.8163

     31  H    Isotropic =    31.6991   Anisotropy =    10.6960

     32  H    Isotropic =    31.4458   Anisotropy =     8.7929

     33  H    Isotropic =    31.0509   Anisotropy =     9.6704

     34  C    Isotropic =   170.3235   Anisotropy =    37.5593

     35  H    Isotropic =    30.6403   Anisotropy =     8.3106

     36  H    Isotropic =    31.0505   Anisotropy =     9.8216

     37  H    Isotropic =    30.4122   Anisotropy =     7.8028

     38  C    Isotropic =   170.3576   Anisotropy =    38.9011

     39  H    Isotropic =    30.7241   Anisotropy =     9.0379

     40  H    Isotropic =    30.6980   Anisotropy =     8.8794

     41  H    Isotropic =    30.9266   Anisotropy =    10.2501

     42  C    Isotropic =   170.3799   Anisotropy =    37.5225

     43  H    Isotropic =    31.0454   Anisotropy =     9.7954

     44  H    Isotropic =    30.4889   Anisotropy =     8.3118

     45  H    Isotropic =    30.2165   Anisotropy =     8.1440

     46  H    Isotropic =    28.9847   Anisotropy =    10.8596

     47  H    Isotropic =    28.4199   Anisotropy =     8.0597

 The electronic state is 1-A.
 Alpha  occ. eigenvalues --  -66.30041 -19.27074 -19.25532 -19.25345 -19.23116
 Alpha  occ. eigenvalues --  -10.31670 -10.30903 -10.30558 -10.30511 -10.30194
 Alpha  occ. eigenvalues --  -10.28287 -10.25403 -10.25358 -10.24337 -10.23378
 Alpha  occ. eigenvalues --  -10.23185 -10.23067 -10.22029 -10.21563  -5.33396
 Alpha  occ. eigenvalues --   -3.67320  -3.67024  -3.66989  -1.11620  -1.07524
 Alpha  occ. eigenvalues --   -1.05522  -1.02926  -0.84905  -0.81918  -0.77632
 Alpha  occ. eigenvalues --   -0.75079  -0.71759  -0.70182  -0.70061  -0.69822
 Alpha  occ. eigenvalues --   -0.69272  -0.69086  -0.63349  -0.62529  -0.58694
 Alpha  occ. eigenvalues --   -0.56141  -0.55097  -0.52541  -0.52187  -0.51668
 Alpha  occ. eigenvalues --   -0.49004  -0.47955  -0.47201  -0.46296  -0.45377
 Alpha  occ. eigenvalues --   -0.44339  -0.44301  -0.43987  -0.43380  -0.42607
 Alpha  occ. eigenvalues --   -0.41676  -0.41001  -0.40480  -0.40181  -0.39769
 Alpha  occ. eigenvalues --   -0.39384  -0.39079  -0.38791  -0.38481  -0.37625
 Alpha  occ. eigenvalues --   -0.36991  -0.36522  -0.35833  -0.34085  -0.33528
 Alpha  occ. eigenvalues --   -0.33431  -0.32846  -0.31860  -0.31188  -0.30409
 Alpha  occ. eigenvalues --   -0.29368  -0.28366  -0.27201  -0.25952
 Alpha virt. eigenvalues --   -0.00060   0.00552   0.01289   0.01499   0.02316
 Alpha virt. eigenvalues --    0.02962   0.03274   0.03730   0.03991   0.04896
 Alpha virt. eigenvalues --    0.05092   0.05454   0.05729   0.06108   0.06373

 Mulliken atomic charges:
              1
     1  H    0.151124
     2  C    0.114667
     3  C   -0.178404
     4  C    0.332288
     5  C   -0.368022
     6  C   -0.340184
     7  C   -0.417640
     8  H    0.193524
     9  H    0.181695
    10  H    0.148741
    11  H    0.173804
    12  H    0.169941
    13  H    0.173390
    14  O   -0.384769
    15  C   -0.114725
    16  O   -0.563840
    17  H    0.399714
    18  O   -0.237405
    19  C   -0.162698
    20  H    0.177638
    21  H    0.161297
    22  H    0.143059
    23  O   -0.306986
    24  Si   0.708356
    25  C   -0.726124
    26  H    0.180080
    27  H    0.205242
    28  H    0.180709
    29  C   -0.008606
    30  C   -0.733147
    31  H    0.186159
    32  H    0.182835
    33  H    0.205817
    34  C   -0.585818
    35  H    0.163567
    36  H    0.161530
    37  H    0.171249
    38  C   -0.540811
    39  H    0.165478
    40  H    0.168454
    41  H    0.163791
    42  C   -0.554542
    43  H    0.160521
    44  H    0.164397
    45  H    0.177011
    46  H    0.173468
    47  H    0.184175
 Sum of Mulliken atomic charges =   0.00000

 Dipole moment (field-independent basis, Debye):
    X=              0.5098    Y=              0.2566    Z=             -2.9421  Tot=              2.9969
 Quadrupole moment (field-independent basis, Debye-Ang):
   XX=           -124.4895   YY=           -126.1787   ZZ=           -124.4836
   XY=             -0.0071   XZ=             -8.2230   YZ=              2.9642

 Normal termination of Gaussian 09 at Tue Dec  6 23:22:12 2022.
