 Gaussian 09, Revision C.01,
 Gaussian 09:  EM64L-G09RevC.01 23-Sep-2011

 -----------------------------------------------------
 # mPW1PW91/6-31+g** scrf=(PCM,solvent=chloroform) nmr
 -----------------------------------------------------

 99/9=1/99;
 -------
 comment
 -------
 Charge =  0 Multiplicity = 1

                         Standard orientation:
 ---------------------------------------------------------------------
 Center     Atomic      Atomic             Coordinates (Angstroms)
 Number     Number       Type             X           Y           Z
 ---------------------------------------------------------------------
      1          1           0       -0.526020   -0.884486    1.056847
      2          6           0       -0.578524   -0.280964    0.138985
      3          6           0       -2.642553   -1.591064   -0.479003
      4          6           0       -2.830337    0.512846    0.979048
      5          6           0       -3.504896   -0.435419   -0.005232
      6          6           0       -1.435692    0.953727    0.476408
      7          6           0       -1.259801   -1.110567   -0.955822
      8          1           0       -3.166119   -2.119772   -1.282612
      9          1           0       -3.454964    1.410769    1.078717
     10          1           0       -0.928526    1.522315    1.277447
     11          1           0       -0.634756   -1.974122   -1.212491
     12          1           0       -2.520332   -2.294763    0.355268
     13          1           0       -1.362010   -0.493675   -1.854953
     14          8           0       -4.300905    0.214505   -1.010774
     15          6           0       -4.969134   -0.542601    0.007781
     16          8           0       -2.730571   -0.196915    2.217225
     17          1           0       -2.316192    0.396149    2.863803
     18          8           0       -1.676696    1.799797   -0.632064
     19          6           0       -0.666721    2.746830   -0.940541
     20          1           0       -0.340748    3.288993   -0.038836
     21          1           0       -1.117401    3.459759   -1.637235
     22          1           0        0.208553    2.281722   -1.404536
     23          8           0        0.731908    0.147365   -0.223268
     24         14           0        2.146830   -0.765298   -0.219846
     25          6           0        1.991809   -2.201256    1.004097
     26          1           0        2.921981   -2.781350    1.035383
     27          1           0        1.191061   -2.893134    0.716401
     28          1           0        1.782073   -1.859451    2.024165
     29          6           0        3.536340    0.445652    0.301368
     30          6           0        2.468266   -1.453755   -1.950990
     31          1           0        3.420417   -1.996032   -1.999860
     32          1           0        2.499259   -0.654412   -2.699969
     33          1           0        1.677245   -2.151411   -2.249881
     34          6           0        3.609158    1.628042   -0.688941
     35          1           0        3.838655    1.296765   -1.709086
     36          1           0        4.401586    2.329163   -0.388411
     37          1           0        2.667246    2.187088   -0.721640
     38          6           0        4.897704   -0.283715    0.311568
     39          1           0        5.163853   -0.673692   -0.678504
     40          1           0        4.912370   -1.123178    1.017857
     41          1           0        5.698061    0.407477    0.613043
     42          6           0        3.248604    0.996867    1.714114
     43          1           0        4.028017    1.712977    2.012965
     44          1           0        3.231977    0.201221    2.469274
     45          1           0        2.285573    1.518700    1.753601
     46          1           0       -5.442120   -1.466283   -0.327845
     47          1           0       -5.549581    0.041098    0.722933
 ---------------------------------------------------------------------

 SCF Done:  E(RmPW1PW91) =  -1140.61923494     A.U. after   13 cycles

      1  H    Isotropic =    27.2932   Anisotropy =     8.7956

      2  C    Isotropic =   121.0527   Anisotropy =    55.2616

      3  C    Isotropic =   165.3264   Anisotropy =    23.9449

      4  C    Isotropic =   116.1450   Anisotropy =    30.0886

      5  C    Isotropic =   138.8397   Anisotropy =    56.8770

      6  C    Isotropic =   110.7848   Anisotropy =    46.4211

      7  C    Isotropic =   166.9946   Anisotropy =    28.3252

      8  H    Isotropic =    30.4655   Anisotropy =    10.3384

      9  H    Isotropic =    28.2638   Anisotropy =     4.8261

     10  H    Isotropic =    28.2481   Anisotropy =     2.4402

     11  H    Isotropic =    30.0151   Anisotropy =     9.0470

     12  H    Isotropic =    29.2666   Anisotropy =     7.2432

     13  H    Isotropic =    29.1477   Anisotropy =     3.5914

     14  O    Isotropic =   296.7124   Anisotropy =   133.8948

     15  C    Isotropic =   146.6510   Anisotropy =    42.5321

     16  O    Isotropic =   289.8230   Anisotropy =    74.7534

     17  H    Isotropic =    30.5793   Anisotropy =    18.3072

     18  O    Isotropic =   310.5810   Anisotropy =    45.4539

     19  C    Isotropic =   135.0241   Anisotropy =    83.8972

     20  H    Isotropic =    28.3451   Anisotropy =     8.3998

     21  H    Isotropic =    27.8442   Anisotropy =    10.5692

     22  H    Isotropic =    27.2205   Anisotropy =     7.4500

     23  O    Isotropic =   275.9334   Anisotropy =    38.3811

     24  Si   Isotropic =   380.0930   Anisotropy =    33.8864

     25  C    Isotropic =   201.6703   Anisotropy =     5.2655

     26  H    Isotropic =    31.5220   Anisotropy =    10.6320

     27  H    Isotropic =    31.3581   Anisotropy =     9.1678

     28  H    Isotropic =    31.3567   Anisotropy =     8.5463

     29  C    Isotropic =   173.1612   Anisotropy =     8.5133

     30  C    Isotropic =   197.3011   Anisotropy =     9.5661

     31  H    Isotropic =    31.5534   Anisotropy =    10.7051

     32  H    Isotropic =    31.2594   Anisotropy =     8.5144

     33  H    Isotropic =    31.4828   Anisotropy =     8.8639

     34  C    Isotropic =   170.1474   Anisotropy =    37.9388

     35  H    Isotropic =    30.5058   Anisotropy =     8.5161

     36  H    Isotropic =    30.9863   Anisotropy =     9.6470

     37  H    Isotropic =    30.3560   Anisotropy =     8.5387

     38  C    Isotropic =   170.3704   Anisotropy =    39.4631

     39  H    Isotropic =    30.6951   Anisotropy =     9.0819

     40  H    Isotropic =    30.7198   Anisotropy =     9.0011

     41  H    Isotropic =    30.9301   Anisotropy =    10.0988

     42  C    Isotropic =   170.4643   Anisotropy =    37.8574

     43  H    Isotropic =    30.9903   Anisotropy =     9.5725

     44  H    Isotropic =    30.5732   Anisotropy =     8.2175

     45  H    Isotropic =    30.2973   Anisotropy =     8.1582

     46  H    Isotropic =    29.0953   Anisotropy =    11.0931

     47  H    Isotropic =    29.0160   Anisotropy =    10.9386

 The electronic state is 1-A.
 Alpha  occ. eigenvalues --  -66.30425 -19.26303 -19.26200 -19.25169 -19.23360
 Alpha  occ. eigenvalues --  -10.31357 -10.31067 -10.30422 -10.30320 -10.29816
 Alpha  occ. eigenvalues --  -10.28181 -10.25270 -10.24804 -10.24536 -10.23669
 Alpha  occ. eigenvalues --  -10.23450 -10.23390 -10.22640 -10.22301  -5.33826
 Alpha  occ. eigenvalues --   -3.67737  -3.67460  -3.67422  -1.11017  -1.07465
 Alpha  occ. eigenvalues --   -1.06282  -1.02937  -0.84304  -0.82274  -0.77682
 Alpha  occ. eigenvalues --   -0.74982  -0.72330  -0.70567  -0.70269  -0.69739
 Alpha  occ. eigenvalues --   -0.69519  -0.68328  -0.65121  -0.61820  -0.57304
 Alpha  occ. eigenvalues --   -0.57037  -0.53824  -0.53524  -0.52283  -0.51101
 Alpha  occ. eigenvalues --   -0.49353  -0.48091  -0.47291  -0.45631  -0.45083
 Alpha  occ. eigenvalues --   -0.44668  -0.44446  -0.43748  -0.43470  -0.42155
 Alpha  occ. eigenvalues --   -0.41959  -0.41299  -0.40925  -0.40461  -0.40237
 Alpha  occ. eigenvalues --   -0.39769  -0.39129  -0.38944  -0.38824  -0.38506
 Alpha  occ. eigenvalues --   -0.37294  -0.36636  -0.35305  -0.34389  -0.33810
 Alpha  occ. eigenvalues --   -0.33422  -0.32686  -0.31975  -0.31090  -0.30303
 Alpha  occ. eigenvalues --   -0.28989  -0.28611  -0.26856  -0.26295
 Alpha virt. eigenvalues --   -0.00458   0.00516   0.01228   0.01471   0.02548
 Alpha virt. eigenvalues --    0.02773   0.03073   0.03707   0.04220   0.04622
 Alpha virt. eigenvalues --    0.04864   0.05144   0.05321   0.06159   0.06511

 Mulliken atomic charges:
              1
     1  H    0.160961
     2  C   -0.577374
     3  C   -0.462601
     4  C   -0.034339
     5  C    0.176139
     6  C   -0.084004
     7  C   -0.132922
     8  H    0.172981
     9  H    0.160330
    10  H    0.131560
    11  H    0.159618
    12  H    0.189020
    13  H    0.193008
    14  O   -0.321037
    15  C   -0.093963
    16  O   -0.487952
    17  H    0.377219
    18  O   -0.249054
    19  C   -0.166872
    20  H    0.138173
    21  H    0.161013
    22  H    0.168036
    23  O   -0.206004
    24  Si   0.775665
    25  C   -0.703489
    26  H    0.192266
    27  H    0.189892
    28  H    0.187912
    29  C    0.022384
    30  C   -0.690955
    31  H    0.185392
    32  H    0.186988
    33  H    0.180718
    34  C   -0.588573
    35  H    0.166845
    36  H    0.162852
    37  H    0.174066
    38  C   -0.545728
    39  H    0.168326
    40  H    0.167004
    41  H    0.166041
    42  C   -0.609727
    43  H    0.163226
    44  H    0.164043
    45  H    0.174234
    46  H    0.169471
    47  H    0.169213
 Sum of Mulliken atomic charges =   0.00000

 Dipole moment (field-independent basis, Debye):
    X=              2.1812    Y=             -0.9292    Z=              2.4982  Tot=              3.4441
 Quadrupole moment (field-independent basis, Debye-Ang):
   XX=           -129.4139   YY=           -120.9278   ZZ=           -126.1078
   XY=              2.9268   XZ=             -7.6480   YZ=              6.2261

 Normal termination of Gaussian 09 at Tue Dec  6 21:21:52 2022.
