 Gaussian 09, Revision C.01,
 Gaussian 09:  EM64L-G09RevC.01 23-Sep-2011

 -----------------------------------------------------
 # mPW1PW91/6-31+g** scrf=(PCM,solvent=chloroform) nmr
 -----------------------------------------------------

 99/9=1/99;
 -------
 comment
 -------
 Charge =  0 Multiplicity = 1

                         Standard orientation:
 ---------------------------------------------------------------------
 Center     Atomic      Atomic             Coordinates (Angstroms)
 Number     Number       Type             X           Y           Z
 ---------------------------------------------------------------------
      1          1           0       -0.496500   -1.392653    0.610056
      2          6           0       -0.513425   -0.529457   -0.071460
      3          6           0       -2.635557   -1.442973   -1.111235
      4          6           0       -2.748513    0.064122    0.958403
      5          6           0       -3.438103   -0.444270   -0.298631
      6          6           0       -1.321190    0.574928    0.636432
      7          6           0       -1.203900   -0.943723   -1.376128
      8          1           0       -3.156927   -1.637435   -2.054676
      9          1           0       -3.352601    0.882545    1.373659
     10          1           0       -0.818281    0.831965    1.589062
     11          1           0       -0.611499   -1.727645   -1.861385
     12          1           0       -2.603574   -2.387548   -0.552026
     13          1           0       -1.220521   -0.077535   -2.044979
     14          8           0       -4.115600    0.590472   -1.038139
     15          6           0       -4.904107   -0.405032   -0.368444
     16          8           0       -2.697371   -1.030518    1.879987
     17          1           0       -2.239791   -0.721944    2.678343
     18          8           0       -1.325386    1.702023   -0.215067
     19          6           0       -1.845054    2.895170    0.338968
     20          1           0       -2.941533    2.885594    0.394526
     21          1           0       -1.538501    3.706686   -0.326531
     22          1           0       -1.433313    3.087112    1.343012
     23          8           0        0.801248   -0.069114   -0.340706
     24         14           0        2.232993   -0.653832    0.307064
     25          6           0        2.155004   -0.621329    2.200320
     26          1           0        3.067520   -1.037343    2.644257
     27          1           0        1.315686   -1.223057    2.571445
     28          1           0        2.030472    0.397004    2.585968
     29          6           0        3.565045    0.535136   -0.372825
     30          6           0        2.519107   -2.441314   -0.246273
     31          1           0        3.448620   -2.847166    0.171589
     32          1           0        2.578839   -2.522096   -1.337383
     33          1           0        1.702855   -3.093704    0.088759
     34          6           0        3.580890    0.467450   -1.915267
     35          1           0        3.844570   -0.533464   -2.278860
     36          1           0        4.325665    1.168118   -2.320461
     37          1           0        2.606201    0.733635   -2.338525
     38          6           0        4.958677    0.150519    0.168185
     39          1           0        5.252788   -0.863936   -0.129489
     40          1           0        5.006091    0.205049    1.263052
     41          1           0        5.722707    0.837240   -0.224104
     42          6           0        3.230544    1.979747    0.058506
     43          1           0        3.969202    2.682298   -0.354672
     44          1           0        3.248990    2.094993    1.149632
     45          1           0        2.239713    2.283926   -0.295699
     46          1           0       -5.428197   -1.102140   -1.022800
     47          1           0       -5.480213   -0.051617    0.487435
 ---------------------------------------------------------------------

 SCF Done:  E(RmPW1PW91) =  -1140.61979329     A.U. after   13 cycles

      1  H    Isotropic =    27.2874   Anisotropy =     8.1759

      2  C    Isotropic =   126.5691   Anisotropy =    52.9532

      3  C    Isotropic =   166.8030   Anisotropy =    22.3237

      4  C    Isotropic =   121.5569   Anisotropy =    40.5327

      5  C    Isotropic =   138.1236   Anisotropy =    57.6250

      6  C    Isotropic =   110.9959   Anisotropy =    42.5676

      7  C    Isotropic =   166.9319   Anisotropy =    29.0368

      8  H    Isotropic =    30.4740   Anisotropy =    10.7345

      9  H    Isotropic =    27.9251   Anisotropy =     3.9243

     10  H    Isotropic =    28.3448   Anisotropy =     3.4867

     11  H    Isotropic =    30.1260   Anisotropy =     8.2777

     12  H    Isotropic =    29.1628   Anisotropy =     7.6581

     13  H    Isotropic =    29.2114   Anisotropy =     4.0235

     14  O    Isotropic =   299.7780   Anisotropy =   134.6325

     15  C    Isotropic =   145.9908   Anisotropy =    42.8712

     16  O    Isotropic =   298.3751   Anisotropy =    92.2247

     17  H    Isotropic =    30.8721   Anisotropy =    18.5883

     18  O    Isotropic =   312.3047   Anisotropy =    49.6720

     19  C    Isotropic =   139.6622   Anisotropy =    81.9627

     20  H    Isotropic =    27.8996   Anisotropy =     9.3378

     21  H    Isotropic =    27.8125   Anisotropy =    10.6725

     22  H    Isotropic =    28.6230   Anisotropy =     9.4975

     23  O    Isotropic =   284.4524   Anisotropy =    48.8309

     24  Si   Isotropic =   381.0548   Anisotropy =    35.9741

     25  C    Isotropic =   200.8232   Anisotropy =     9.0719

     26  H    Isotropic =    31.7077   Anisotropy =    11.0458

     27  H    Isotropic =    31.3853   Anisotropy =     8.6660

     28  H    Isotropic =    31.5021   Anisotropy =     8.4536

     29  C    Isotropic =   173.5334   Anisotropy =     7.9928

     30  C    Isotropic =   200.7971   Anisotropy =     8.2764

     31  H    Isotropic =    31.6918   Anisotropy =    10.9647

     32  H    Isotropic =    31.4796   Anisotropy =     9.0550

     33  H    Isotropic =    31.3840   Anisotropy =     8.7912

     34  C    Isotropic =   170.4481   Anisotropy =    37.7641

     35  H    Isotropic =    30.5544   Anisotropy =     8.6447

     36  H    Isotropic =    31.0110   Anisotropy =     9.7848

     37  H    Isotropic =    30.1667   Anisotropy =     7.7761

     38  C    Isotropic =   170.6228   Anisotropy =    39.3252

     39  H    Isotropic =    30.7120   Anisotropy =     9.2682

     40  H    Isotropic =    30.7036   Anisotropy =     8.9994

     41  H    Isotropic =    30.9077   Anisotropy =    10.0956

     42  C    Isotropic =   170.4948   Anisotropy =    37.8888

     43  H    Isotropic =    30.9864   Anisotropy =     9.6309

     44  H    Isotropic =    30.5803   Anisotropy =     8.0411

     45  H    Isotropic =    30.0974   Anisotropy =     8.7120

     46  H    Isotropic =    29.0595   Anisotropy =    11.2551

     47  H    Isotropic =    28.9580   Anisotropy =    10.7846

 The electronic state is 1-A.
 Alpha  occ. eigenvalues --  -66.30169 -19.26463 -19.26375 -19.25277 -19.23045
 Alpha  occ. eigenvalues --  -10.31460 -10.31136 -10.30510 -10.30434 -10.29976
 Alpha  occ. eigenvalues --  -10.28644 -10.25192 -10.24603 -10.24231 -10.23539
 Alpha  occ. eigenvalues --  -10.23089 -10.23075 -10.22460 -10.22302  -5.33588
 Alpha  occ. eigenvalues --   -3.67493  -3.67218  -3.67191  -1.11081  -1.07694
 Alpha  occ. eigenvalues --   -1.06485  -1.02955  -0.84181  -0.82033  -0.77348
 Alpha  occ. eigenvalues --   -0.75356  -0.72174  -0.70327  -0.70317  -0.70024
 Alpha  occ. eigenvalues --   -0.69383  -0.68485  -0.64773  -0.62051  -0.57217
 Alpha  occ. eigenvalues --   -0.57056  -0.53887  -0.53507  -0.52473  -0.51376
 Alpha  occ. eigenvalues --   -0.49104  -0.48223  -0.47112  -0.46175  -0.45447
 Alpha  occ. eigenvalues --   -0.44392  -0.44201  -0.43350  -0.42918  -0.42430
 Alpha  occ. eigenvalues --   -0.41761  -0.41340  -0.40815  -0.40317  -0.40112
 Alpha  occ. eigenvalues --   -0.39817  -0.39190  -0.38921  -0.38688  -0.38641
 Alpha  occ. eigenvalues --   -0.37039  -0.36095  -0.35256  -0.34475  -0.33798
 Alpha  occ. eigenvalues --   -0.33470  -0.32747  -0.31545  -0.31374  -0.30361
 Alpha  occ. eigenvalues --   -0.29061  -0.27642  -0.27204  -0.26555
 Alpha virt. eigenvalues --   -0.00651   0.00534   0.01186   0.01501   0.02583
 Alpha virt. eigenvalues --    0.02935   0.03011   0.03902   0.04153   0.04568
 Alpha virt. eigenvalues --    0.05046   0.05170   0.05358   0.05823   0.06426

 Mulliken atomic charges:
              1
     1  H    0.153541
     2  C   -0.404777
     3  C   -0.548673
     4  C    0.127184
     5  C    0.041699
     6  C   -0.288343
     7  C   -0.177369
     8  H    0.173064
     9  H    0.147928
    10  H    0.136814
    11  H    0.169573
    12  H    0.187689
    13  H    0.196397
    14  O   -0.304400
    15  C   -0.037866
    16  O   -0.477484
    17  H    0.376893
    18  O   -0.200695
    19  C   -0.181890
    20  H    0.160982
    21  H    0.167363
    22  H    0.145702
    23  O   -0.267570
    24  Si   0.804488
    25  C   -0.681669
    26  H    0.188741
    27  H    0.180431
    28  H    0.185168
    29  C    0.017495
    30  C   -0.686526
    31  H    0.186846
    32  H    0.186957
    33  H    0.182471
    34  C   -0.587545
    35  H    0.163370
    36  H    0.161563
    37  H    0.183813
    38  C   -0.550205
    39  H    0.167756
    40  H    0.167540
    41  H    0.165653
    42  C   -0.581695
    43  H    0.161177
    44  H    0.160739
    45  H    0.187447
    46  H    0.171989
    47  H    0.168233
 Sum of Mulliken atomic charges =   0.00000

 Dipole moment (field-independent basis, Debye):
    X=              0.0011    Y=             -1.0922    Z=              3.4521  Tot=              3.6207
 Quadrupole moment (field-independent basis, Debye-Ang):
   XX=           -122.9566   YY=           -123.9605   ZZ=           -123.2101
   XY=             -0.0127   XZ=             -4.0893   YZ=              7.2216

 Normal termination of Gaussian 09 at Tue Dec  6 22:44:19 2022.
