 Gaussian 09, Revision C.01,
 Gaussian 09:  EM64L-G09RevC.01 23-Sep-2011

 -----------------------------------------------------
 # mPW1PW91/6-31+g** scrf=(PCM,solvent=chloroform) nmr
 -----------------------------------------------------

 99/9=1/99;
 -------
 comment
 -------
 Charge =  0 Multiplicity = 1

                         Standard orientation:
 ---------------------------------------------------------------------
 Center     Atomic      Atomic             Coordinates (Angstroms)
 Number     Number       Type             X           Y           Z
 ---------------------------------------------------------------------
      1          1           0       -0.229826   -0.695802    0.859694
      2          6           0       -0.450030   -0.065389   -0.013898
      3          6           0       -2.242509   -1.725922   -0.644325
      4          6           0       -2.772034    0.207696    0.958984
      5          6           0       -3.292287   -0.797459   -0.060909
      6          6           0       -1.519936    0.951393    0.437248
      7          6           0       -1.007467   -0.948957   -1.133673
      8          1           0       -2.689978   -2.296680   -1.464862
      9          1           0       -3.558358    0.952102    1.143620
     10          1           0       -1.104631    1.564912    1.258258
     11          1           0       -0.231222   -1.644231   -1.472292
     12          1           0       -1.944557   -2.442685    0.132724
     13          1           0       -1.273866   -0.309342   -1.981741
     14          8           0       -4.250154   -0.261661   -0.990038
     15          6           0       -4.704088   -1.196577   -0.001722
     16          8           0       -2.467786   -0.537955    2.142125
     17          1           0       -2.157614    0.090282    2.813408
     18          8           0       -1.974633    1.793273   -0.604880
     19          6           0       -1.192524    2.946097   -0.873622
     20          1           0       -0.981147    3.506422    0.051526
     21          1           0       -1.793313    3.576250   -1.535786
     22          1           0       -0.243965    2.698916   -1.359863
     23          8           0        0.728040    0.610395   -0.449820
     24         14           0        2.259160    0.590121    0.244317
     25          6           0        3.107262    2.110868   -0.477579
     26          1           0        4.131608    2.224378   -0.103995
     27          1           0        2.553027    3.017765   -0.209397
     28          1           0        3.152315    2.063795   -1.571309
     29          6           0        3.219014   -1.012109   -0.210107
     30          6           0        2.119168    0.762130    2.126650
     31          1           0        3.110441    0.787137    2.595060
     32          1           0        1.562479   -0.062075    2.587712
     33          1           0        1.609339    1.696785    2.389951
     34          6           0        2.546510   -2.254387    0.413547
     35          1           0        2.509370   -2.197459    1.508301
     36          1           0        3.109250   -3.163358    0.154907
     37          1           0        1.521797   -2.395906    0.049880
     38          6           0        4.665181   -0.914742    0.324594
     39          1           0        4.695776   -0.805886    1.415842
     40          1           0        5.210853   -0.069597   -0.112124
     41          1           0        5.226216   -1.826940    0.074611
     42          6           0        3.261215   -1.181035   -1.743884
     43          1           0        3.798336   -2.101905   -2.014611
     44          1           0        3.778767   -0.346898   -2.232933
     45          1           0        2.255272   -1.244433   -2.174024
     46          1           0       -5.000688   -2.174770   -0.382141
     47          1           0       -5.352514   -0.784553    0.772228
 ---------------------------------------------------------------------

 SCF Done:  E(RmPW1PW91) =  -1140.61889487     A.U. after   14 cycles

      1  H    Isotropic =    27.1554   Anisotropy =     8.8111

      2  C    Isotropic =   121.4650   Anisotropy =    53.7777

      3  C    Isotropic =   165.3101   Anisotropy =    23.3743

      4  C    Isotropic =   114.9955   Anisotropy =    27.1421

      5  C    Isotropic =   138.2780   Anisotropy =    57.4647

      6  C    Isotropic =   110.7108   Anisotropy =    45.7565

      7  C    Isotropic =   167.2995   Anisotropy =    28.1296

      8  H    Isotropic =    30.5405   Anisotropy =    10.1691

      9  H    Isotropic =    28.3221   Anisotropy =     4.7637

     10  H    Isotropic =    28.2558   Anisotropy =     2.0066

     11  H    Isotropic =    29.7848   Anisotropy =     9.6096

     12  H    Isotropic =    29.1959   Anisotropy =     6.9470

     13  H    Isotropic =    29.0743   Anisotropy =     4.0823

     14  O    Isotropic =   295.5920   Anisotropy =   138.4969

     15  C    Isotropic =   146.8219   Anisotropy =    44.1419

     16  O    Isotropic =   289.9140   Anisotropy =    73.2096

     17  H    Isotropic =    30.5084   Anisotropy =    18.0059

     18  O    Isotropic =   310.9933   Anisotropy =    46.2816

     19  C    Isotropic =   135.3547   Anisotropy =    84.4924

     20  H    Isotropic =    28.3419   Anisotropy =     8.6136

     21  H    Isotropic =    27.8249   Anisotropy =    10.8275

     22  H    Isotropic =    27.1887   Anisotropy =     7.0865

     23  O    Isotropic =   277.5969   Anisotropy =    41.8682

     24  Si   Isotropic =   378.4358   Anisotropy =    37.8489

     25  C    Isotropic =   198.8775   Anisotropy =     7.3999

     26  H    Isotropic =    31.6394   Anisotropy =    10.7058

     27  H    Isotropic =    31.5580   Anisotropy =     9.5814

     28  H    Isotropic =    31.2682   Anisotropy =     8.8827

     29  C    Isotropic =   171.5659   Anisotropy =     7.8688

     30  C    Isotropic =   201.2403   Anisotropy =     8.1141

     31  H    Isotropic =    31.5225   Anisotropy =    10.7749

     32  H    Isotropic =    31.0718   Anisotropy =     7.6830

     33  H    Isotropic =    31.6104   Anisotropy =     9.7732

     34  C    Isotropic =   170.1775   Anisotropy =    38.0455

     35  H    Isotropic =    30.4518   Anisotropy =     7.4393

     36  H    Isotropic =    30.9093   Anisotropy =     9.4422

     37  H    Isotropic =    30.3784   Anisotropy =     9.4866

     38  C    Isotropic =   169.3559   Anisotropy =    40.2568

     39  H    Isotropic =    30.6952   Anisotropy =     8.7268

     40  H    Isotropic =    30.7040   Anisotropy =     9.1652

     41  H    Isotropic =    30.9819   Anisotropy =    10.0024

     42  C    Isotropic =   170.3886   Anisotropy =    36.8986

     43  H    Isotropic =    30.9823   Anisotropy =     9.5980

     44  H    Isotropic =    30.5362   Anisotropy =     8.7435

     45  H    Isotropic =    30.2375   Anisotropy =     7.8946

     46  H    Isotropic =    29.1416   Anisotropy =    10.9350

     47  H    Isotropic =    29.0050   Anisotropy =    10.9316

 The electronic state is 1-A.
 Alpha  occ. eigenvalues --  -66.30522 -19.26357 -19.26202 -19.25230 -19.23480
 Alpha  occ. eigenvalues --  -10.31359 -10.31105 -10.30490 -10.30442 -10.29818
 Alpha  occ. eigenvalues --  -10.28232 -10.25218 -10.24877 -10.24400 -10.23719
 Alpha  occ. eigenvalues --  -10.23697 -10.23407 -10.22683 -10.22383  -5.33914
 Alpha  occ. eigenvalues --   -3.67823  -3.67557  -3.67503  -1.11018  -1.07519
 Alpha  occ. eigenvalues --   -1.06333  -1.03040  -0.84296  -0.82362  -0.77653
 Alpha  occ. eigenvalues --   -0.75130  -0.72306  -0.70708  -0.70318  -0.69762
 Alpha  occ. eigenvalues --   -0.69616  -0.68322  -0.65051  -0.61781  -0.57297
 Alpha  occ. eigenvalues --   -0.57099  -0.53922  -0.53734  -0.52428  -0.51202
 Alpha  occ. eigenvalues --   -0.49399  -0.47972  -0.47562  -0.46071  -0.45396
 Alpha  occ. eigenvalues --   -0.44803  -0.44666  -0.43647  -0.43015  -0.42160
 Alpha  occ. eigenvalues --   -0.41612  -0.41220  -0.40943  -0.40300  -0.40120
 Alpha  occ. eigenvalues --   -0.39805  -0.39370  -0.39063  -0.38984  -0.38232
 Alpha  occ. eigenvalues --   -0.37359  -0.36599  -0.35590  -0.34407  -0.33834
 Alpha  occ. eigenvalues --   -0.33684  -0.32819  -0.31803  -0.31014  -0.30372
 Alpha  occ. eigenvalues --   -0.29706  -0.28643  -0.27604  -0.25429
 Alpha virt. eigenvalues --   -0.00597   0.00588   0.01196   0.01534   0.02526
 Alpha virt. eigenvalues --    0.02853   0.03111   0.03775   0.04123   0.04508
 Alpha virt. eigenvalues --    0.04746   0.04970   0.05527   0.06400   0.06496

 Mulliken atomic charges:
              1
     1  H    0.152605
     2  C   -0.366232
     3  C   -0.451341
     4  C   -0.119038
     5  C    0.177011
     6  C   -0.226656
     7  C   -0.175163
     8  H    0.173132
     9  H    0.161411
    10  H    0.131151
    11  H    0.160551
    12  H    0.188099
    13  H    0.192986
    14  O   -0.322638
    15  C   -0.077777
    16  O   -0.470135
    17  H    0.375996
    18  O   -0.220879
    19  C   -0.161045
    20  H    0.135996
    21  H    0.161869
    22  H    0.173883
    23  O   -0.285421
    24  Si   0.903832
    25  C   -0.725185
    26  H    0.186201
    27  H    0.185585
    28  H    0.189248
    29  C   -0.018699
    30  C   -0.716792
    31  H    0.189576
    32  H    0.186451
    33  H    0.185179
    34  C   -0.591245
    35  H    0.166751
    36  H    0.165943
    37  H    0.165029
    38  C   -0.525715
    39  H    0.166669
    40  H    0.168892
    41  H    0.166681
    42  C   -0.599890
    43  H    0.163304
    44  H    0.167028
    45  H    0.174254
    46  H    0.169554
    47  H    0.168983
 Sum of Mulliken atomic charges =   0.00000

 Dipole moment (field-independent basis, Debye):
    X=              2.4599    Y=              0.1111    Z=              3.1505  Tot=              3.9987
 Quadrupole moment (field-independent basis, Debye-Ang):
   XX=           -130.4054   YY=           -120.3557   ZZ=           -125.7964
   XY=              4.0193   XZ=             -7.1091   YZ=              5.9762

 Normal termination of Gaussian 09 at Tue Dec  6 21:38:26 2022.
