 Gaussian 09, Revision C.01,
 Gaussian 09:  EM64L-G09RevC.01 23-Sep-2011

 -----------------------------------------------------
 # mPW1PW91/6-31+g** scrf=(PCM,solvent=chloroform) nmr
 -----------------------------------------------------

 99/9=1/99;
 -------
 comment
 -------
 Charge =  0 Multiplicity = 1

                         Standard orientation:
 ---------------------------------------------------------------------
 Center     Atomic      Atomic             Coordinates (Angstroms)
 Number     Number       Type             X           Y           Z
 ---------------------------------------------------------------------
      1          1           0       -0.134451   -0.099023   -1.863597
      2          6           0        0.451975   -0.367600   -0.974657
      3          6           0        2.253424   -1.942363   -0.109076
      4          6           0        2.248108    0.519894    0.565180
      5          6           0        3.078676   -0.722366    0.239094
      6          6           0        1.328462    0.853868   -0.619883
      7          6           0        1.325845   -1.595620   -1.287158
      8          1           0        1.650179   -2.234850    0.757962
      9          1           0        1.607762    0.288443    1.429112
     10          1           0        1.961861    1.083165   -1.493779
     11          1           0        1.924260   -1.390126   -2.185767
     12          1           0        2.908509   -2.784808   -0.355274
     13          1           0        0.673398   -2.443261   -1.522661
     14          8           0        4.212267   -0.894298    1.110825
     15          6           0        4.447692   -0.565302   -0.276367
     16          8           0        3.087370    1.627523    0.860367
     17          1           0        3.719820    1.297797    1.523479
     18          8           0        0.463063    1.945826   -0.364634
     19          6           0        1.010475    3.237012   -0.602282
     20          1           0        1.802450    3.480486    0.111446
     21          1           0        0.182860    3.943335   -0.495259
     22          1           0        1.413360    3.314371   -1.624382
     23          8           0       -0.404589   -0.667236    0.119468
     24         14           0       -2.063049   -0.967569    0.124038
     25          6           0       -2.529421   -1.973272   -1.413405
     26          1           0       -3.608902   -2.164561   -1.441972
     27          1           0       -2.025107   -2.947096   -1.410768
     28          1           0       -2.266343   -1.465437   -2.348640
     29          6           0       -3.084626    0.653723    0.204902
     30          6           0       -2.320604   -2.013276    1.672085
     31          1           0       -3.366663   -2.319237    1.790189
     32          1           0       -2.026401   -1.470030    2.577006
     33          1           0       -1.710791   -2.922644    1.619902
     34          6           0       -2.593286    1.523291    1.382796
     35          1           0       -2.704167    1.009025    2.345958
     36          1           0       -3.183283    2.450200    1.441395
     37          1           0       -1.541239    1.798601    1.260322
     38          6           0       -4.575675    0.308812    0.416297
     39          1           0       -4.744252   -0.236981    1.352415
     40          1           0       -4.984019   -0.296205   -0.403369
     41          1           0       -5.173530    1.230533    0.465694
     42          6           0       -2.937266    1.457422   -1.105508
     43          1           0       -3.533302    2.380968   -1.052995
     44          1           0       -3.294120    0.893733   -1.977079
     45          1           0       -1.896225    1.747852   -1.281217
     46          1           0        4.891584   -1.367734   -0.865586
     47          1           0        4.851874    0.429598   -0.449396
 ---------------------------------------------------------------------

 SCF Done:  E(RmPW1PW91) =  -1140.62358328     A.U. after   13 cycles

      1  H    Isotropic =    27.3120   Anisotropy =     3.2712

      2  C    Isotropic =   121.6503   Anisotropy =    36.6371

      3  C    Isotropic =   168.4977   Anisotropy =    29.5682

      4  C    Isotropic =   122.7167   Anisotropy =    38.8622

      5  C    Isotropic =   134.2352   Anisotropy =    59.8207

      6  C    Isotropic =   111.1003   Anisotropy =    43.0705

      7  C    Isotropic =   163.1189   Anisotropy =    20.9694

      8  H    Isotropic =    29.1930   Anisotropy =     6.1583

      9  H    Isotropic =    27.1159   Anisotropy =     6.3191

     10  H    Isotropic =    28.5306   Anisotropy =     3.4074

     11  H    Isotropic =    30.0642   Anisotropy =     8.8496

     12  H    Isotropic =    30.5284   Anisotropy =    11.0061

     13  H    Isotropic =    29.8373   Anisotropy =     8.6188

     14  O    Isotropic =   314.5380   Anisotropy =   110.9969

     15  C    Isotropic =   146.1768   Anisotropy =    33.6328

     16  O    Isotropic =   312.0139   Anisotropy =    45.7586

     17  H    Isotropic =    29.5985   Anisotropy =    17.3216

     18  O    Isotropic =   294.9712   Anisotropy =    71.2103

     19  C    Isotropic =   136.5252   Anisotropy =    86.0521

     20  H    Isotropic =    27.2664   Anisotropy =     8.6758

     21  H    Isotropic =    27.9121   Anisotropy =    10.1872

     22  H    Isotropic =    28.3804   Anisotropy =     9.9694

     23  O    Isotropic =   287.8296   Anisotropy =    23.7840

     24  Si   Isotropic =   381.1060   Anisotropy =    30.6427

     25  C    Isotropic =   201.2321   Anisotropy =     6.4195

     26  H    Isotropic =    31.6210   Anisotropy =    10.6969

     27  H    Isotropic =    31.6256   Anisotropy =     9.8422

     28  H    Isotropic =    31.1706   Anisotropy =     7.7122

     29  C    Isotropic =   171.3829   Anisotropy =     7.9011

     30  C    Isotropic =   198.7673   Anisotropy =     7.8554

     31  H    Isotropic =    31.6336   Anisotropy =    10.8217

     32  H    Isotropic =    31.1958   Anisotropy =     8.4034

     33  H    Isotropic =    31.5545   Anisotropy =     9.6241

     34  C    Isotropic =   171.0647   Anisotropy =    36.9447

     35  H    Isotropic =    30.6101   Anisotropy =     8.4014

     36  H    Isotropic =    31.1309   Anisotropy =     9.1261

     37  H    Isotropic =    29.6201   Anisotropy =    10.1863

     38  C    Isotropic =   168.9014   Anisotropy =    41.5150

     39  H    Isotropic =    30.7116   Anisotropy =     9.1549

     40  H    Isotropic =    30.7469   Anisotropy =     9.1436

     41  H    Isotropic =    30.9627   Anisotropy =    10.0144

     42  C    Isotropic =   170.8366   Anisotropy =    35.3751

     43  H    Isotropic =    31.0717   Anisotropy =     9.1537

     44  H    Isotropic =    30.6592   Anisotropy =     7.9571

     45  H    Isotropic =    29.6871   Anisotropy =    10.2323

     46  H    Isotropic =    29.0449   Anisotropy =    10.8268

     47  H    Isotropic =    28.4370   Anisotropy =     7.9668

 The electronic state is 1-A.
 Alpha  occ. eigenvalues --  -66.30263 -19.27048 -19.25458 -19.25135 -19.23233
 Alpha  occ. eigenvalues --  -10.31645 -10.31025 -10.30559 -10.30427 -10.30170
 Alpha  occ. eigenvalues --  -10.28119 -10.25443 -10.25420 -10.24353 -10.23384
 Alpha  occ. eigenvalues --  -10.22847 -10.22577 -10.22438 -10.22119  -5.33638
 Alpha  occ. eigenvalues --   -3.67555  -3.67283  -3.67218  -1.11591  -1.07400
 Alpha  occ. eigenvalues --   -1.05434  -1.03041  -0.84907  -0.81778  -0.77632
 Alpha  occ. eigenvalues --   -0.75079  -0.72077  -0.70247  -0.69957  -0.69689
 Alpha  occ. eigenvalues --   -0.69225  -0.69164  -0.63432  -0.62398  -0.58644
 Alpha  occ. eigenvalues --   -0.56180  -0.55066  -0.52634  -0.52071  -0.51609
 Alpha  occ. eigenvalues --   -0.48867  -0.47711  -0.47140  -0.46609  -0.45649
 Alpha  occ. eigenvalues --   -0.44383  -0.44195  -0.43763  -0.43483  -0.42688
 Alpha  occ. eigenvalues --   -0.41563  -0.41029  -0.40596  -0.40079  -0.39920
 Alpha  occ. eigenvalues --   -0.39702  -0.39024  -0.38692  -0.38402  -0.37476
 Alpha  occ. eigenvalues --   -0.36804  -0.36724  -0.35843  -0.34162  -0.33775
 Alpha  occ. eigenvalues --   -0.33142  -0.32721  -0.31618  -0.31091  -0.30611
 Alpha  occ. eigenvalues --   -0.29874  -0.28428  -0.26880  -0.25932
 Alpha virt. eigenvalues --   -0.00231   0.00570   0.01397   0.01558   0.02331
 Alpha virt. eigenvalues --    0.03028   0.03293   0.03778   0.03879   0.04968
 Alpha virt. eigenvalues --    0.05170   0.05216   0.05948   0.06097   0.06671

 Mulliken atomic charges:
              1
     1  H    0.143129
     2  C    0.186855
     3  C   -0.153458
     4  C    0.266549
     5  C   -0.332401
     6  C   -0.390867
     7  C   -0.388847
     8  H    0.194970
     9  H    0.183940
    10  H    0.146371
    11  H    0.173381
    12  H    0.169807
    13  H    0.172154
    14  O   -0.382116
    15  C   -0.117217
    16  O   -0.567589
    17  H    0.398378
    18  O   -0.188123
    19  C   -0.179940
    20  H    0.176863
    21  H    0.162322
    22  H    0.141865
    23  O   -0.211348
    24  Si   0.474517
    25  C   -0.675858
    26  H    0.189068
    27  H    0.185106
    28  H    0.183424
    29  C   -0.023944
    30  C   -0.691561
    31  H    0.186328
    32  H    0.189133
    33  H    0.185129
    34  C   -0.582918
    35  H    0.159350
    36  H    0.154496
    37  H    0.197324
    38  C   -0.450882
    39  H    0.167536
    40  H    0.163851
    41  H    0.165019
    42  C   -0.640958
    43  H    0.157161
    44  H    0.160591
    45  H    0.186278
    46  H    0.172627
    47  H    0.184505
 Sum of Mulliken atomic charges =   0.00000

 Dipole moment (field-independent basis, Debye):
    X=              0.0906    Y=             -1.1749    Z=             -3.1553  Tot=              3.3682
 Quadrupole moment (field-independent basis, Debye-Ang):
   XX=           -125.7373   YY=           -124.5625   ZZ=           -124.8956
   XY=              2.0127   XZ=             -8.4891   YZ=              1.8697

 Normal termination of Gaussian 09 at Tue Dec  6 21:55:26 2022.
