 Gaussian 09, Revision C.01,
 Gaussian 09:  EM64L-G09RevC.01 23-Sep-2011

 ----------------------------------------------------------------
 # wb97xd/6-31+g** scrf=(pcm,solvent=chloroform,smd,dovacuum) nmr
 ----------------------------------------------------------------

 99/9=1/99;
 -------
 comment
 -------
 Charge =  0 Multiplicity = 1

                         Standard orientation:
 ---------------------------------------------------------------------
 Center     Atomic      Atomic             Coordinates (Angstroms)
 Number     Number       Type             X           Y           Z
 ---------------------------------------------------------------------
      1          6           0       -2.442136    1.354314    0.143944
      2          6           0       -3.976685   -0.926570   -0.319801
      3          6           0       -3.779516    1.476027   -0.237539
      4          6           0       -1.856025    0.088797    0.304407
      5          6           0       -2.639647   -1.050214    0.061824
      6          6           0       -4.546305    0.336010   -0.467882
      7          6           0       -0.395067   -0.015278    0.707828
      8          6           0        0.548188   -0.072290   -0.505209
      9          6           0        1.898262    0.449498   -0.051895
     10          8           0        2.845449   -0.521981    0.015201
     11          6           0        4.142902   -0.112548    0.470618
     12          8           0       -0.201938   -1.145875    1.561582
     13          6           0        0.625773   -1.441476   -1.184173
     14          8           0        2.088290    1.628056    0.232194
     15          6           0        4.971703    0.389812   -0.696471
     16          1           0       -1.858429    2.257353    0.314606
     17          1           0       -4.572669   -1.816647   -0.504814
     18          1           0       -4.222443    2.461603   -0.356983
     19          1           0       -2.209562   -2.045108    0.163648
     20          1           0       -5.587051    0.431614   -0.766269
     21          1           0       -0.163261    0.858601    1.330319
     22          1           0        0.216852    0.642808   -1.271425
     23          1           0        4.621007   -0.994786    0.908703
     24          1           0        4.068244    0.639937    1.263996
     25          1           0       -0.937089   -1.142715    2.200227
     26          1           0       -0.340945   -1.726578   -1.609441
     27          1           0        1.350561   -1.423259   -2.006087
     28          1           0        0.937834   -2.229535   -0.490784
     29          1           0        5.037440   -0.374134   -1.478153
     30          1           0        5.982852    0.649652   -0.370761
     31          1           0        4.513572    1.273107   -1.152509
 ---------------------------------------------------------------------

 SCF Done:  E(RwB97XD) =  -692.441556481     A.U. after   16 cycles

      1  C    Isotropic =    71.6039   Anisotropy =   165.3469

      2  C    Isotropic =    69.9214   Anisotropy =   174.9210

      3  C    Isotropic =    69.8496   Anisotropy =   174.7955

      4  C    Isotropic =    50.1482   Anisotropy =   184.1926

      5  C    Isotropic =    73.9636   Anisotropy =   179.8306

      6  C    Isotropic =    72.2023   Anisotropy =   176.5231

      7  C    Isotropic =   119.7618   Anisotropy =    33.5926

      8  C    Isotropic =   147.5661   Anisotropy =    24.1553

      9  C    Isotropic =    17.5370   Anisotropy =   102.1343

     10  O    Isotropic =   126.8538   Anisotropy =   177.3840

     11  C    Isotropic =   137.3439   Anisotropy =    65.9780

     12  O    Isotropic =   291.1205   Anisotropy =    77.4151

     13  C    Isotropic =   188.7843   Anisotropy =     9.1426

     14  O    Isotropic =   -34.5380   Anisotropy =   533.4646

     15  C    Isotropic =   181.6008   Anisotropy =    26.0654

     16  H    Isotropic =    23.6644   Anisotropy =     8.2881

     17  H    Isotropic =    23.7569   Anisotropy =     5.1481

     18  H    Isotropic =    23.8010   Anisotropy =     4.7457

     19  H    Isotropic =    23.2785   Anisotropy =    10.0943

     20  H    Isotropic =    23.7569   Anisotropy =     4.2737

     21  H    Isotropic =    26.3024   Anisotropy =     5.6943

     22  H    Isotropic =    28.9029   Anisotropy =     5.0173

     23  H    Isotropic =    27.6399   Anisotropy =     7.7579

     24  H    Isotropic =    26.8116   Anisotropy =     5.9357

     25  H    Isotropic =    30.0674   Anisotropy =    16.5140

     26  H    Isotropic =    30.6139   Anisotropy =     9.4740

     27  H    Isotropic =    30.6448   Anisotropy =     9.9761

     28  H    Isotropic =    29.7698   Anisotropy =     6.8197

     29  H    Isotropic =    30.4273   Anisotropy =     8.2734

     30  H    Isotropic =    30.5719   Anisotropy =    11.5082

     31  H    Isotropic =    30.3031   Anisotropy =     6.4772

 The electronic state is 1-A.
 Alpha  occ. eigenvalues --  -19.32718 -19.28291 -19.27184 -10.43822 -10.36229
 Alpha  occ. eigenvalues --  -10.34945 -10.32090 -10.31596 -10.30783 -10.30766
 Alpha  occ. eigenvalues --  -10.30721 -10.30708 -10.30563 -10.28598 -10.28540
 Alpha  occ. eigenvalues --   -1.20853  -1.13188  -1.12139  -0.96266  -0.91283
 Alpha  occ. eigenvalues --   -0.86781  -0.84936  -0.84772  -0.77993  -0.75801
 Alpha  occ. eigenvalues --   -0.71501  -0.70078  -0.67797  -0.64703  -0.62263
 Alpha  occ. eigenvalues --   -0.59884  -0.58748  -0.57229  -0.56282  -0.55080
 Alpha  occ. eigenvalues --   -0.53299  -0.52699  -0.51971  -0.50633  -0.50127
 Alpha  occ. eigenvalues --   -0.49147  -0.47272  -0.46430  -0.46160  -0.45747
 Alpha  occ. eigenvalues --   -0.45021  -0.44474  -0.42870  -0.42428  -0.41556
 Alpha  occ. eigenvalues --   -0.40667  -0.38665  -0.36843  -0.36213  -0.33364
 Alpha  occ. eigenvalues --   -0.32425
 Alpha virt. eigenvalues --    0.04659   0.05251   0.06494   0.07280   0.07959
 Alpha virt. eigenvalues --    0.08236   0.08733   0.09138   0.09878   0.10293
 Alpha virt. eigenvalues --    0.10341   0.11071   0.11719   0.11924   0.12582

 Mulliken atomic charges:
              1
     1  C    0.016135
     2  C   -0.337567
     3  C   -0.331098
     4  C   -0.053486
     5  C   -0.150540
     6  C   -0.145428
     7  C    0.120421
     8  C    0.384175
     9  C   -0.139664
    10  O   -0.249407
    11  C   -0.008283
    12  O   -0.569993
    13  C   -0.654259
    14  O   -0.482765
    15  C   -0.513627
    16  H    0.180571
    17  H    0.184906
    18  H    0.185122
    19  H    0.185660
    20  H    0.182668
    21  H    0.168002
    22  H    0.214166
    23  H    0.173164
    24  H    0.179122
    25  H    0.400505
    26  H    0.171978
    27  H    0.173008
    28  H    0.186556
    29  H    0.173319
    30  H    0.177333
    31  H    0.179307
 Sum of Mulliken atomic charges =   0.00000

 Dipole moment (field-independent basis, Debye):
    X=             -1.0021    Y=             -0.9868    Z=             -0.4722  Tot=              1.4836
 Quadrupole moment (field-independent basis, Debye-Ang):
   XX=            -72.2511   YY=            -92.6965   ZZ=            -88.6218
   XY=             -3.1359   XZ=             -0.1574   YZ=             -0.0565

 Normal termination of Gaussian 09 at Tue May 17 17:52:33 2022.
