 Gaussian 09, Revision C.01,
 Gaussian 09:  EM64L-G09RevC.01 23-Sep-2011

 ----------------------------------------------------------------
 # wb97xd/6-31+g** scrf=(pcm,solvent=chloroform,smd,dovacuum) nmr
 ----------------------------------------------------------------

 99/9=1/99;
 -------
 comment
 -------
 Charge =  0 Multiplicity = 1

                         Standard orientation:
 ---------------------------------------------------------------------
 Center     Atomic      Atomic             Coordinates (Angstroms)
 Number     Number       Type             X           Y           Z
 ---------------------------------------------------------------------
      1          6           0       -2.437193    1.066781    0.237335
      2          6           0       -4.171139   -1.091878   -0.097439
      3          6           0       -3.822111    1.264805    0.243160
      4          6           0       -1.894019   -0.212770    0.054950
      5          6           0       -2.789258   -1.289961   -0.101242
      6          6           0       -4.687599    0.187937    0.073100
      7          6           0       -0.398770   -0.515198    0.035244
      8          6           0        0.573437    0.664970    0.235538
      9          6           0        1.879362    0.100719    0.770950
     10          8           0        2.906885    0.215013   -0.110550
     11          6           0        4.153590   -0.315301    0.353373
     12          8           0       -0.080035   -1.169203   -1.202082
     13          6           0        0.764104    1.527609   -1.017745
     14          8           0        1.979472   -0.396505    1.887972
     15          6           0        5.182511   -0.131485   -0.745502
     16          1           0       -1.807384    1.939866    0.381252
     17          1           0       -4.841693   -1.937600   -0.223352
     18          1           0       -4.224845    2.265156    0.384935
     19          1           0       -2.403967   -2.301390   -0.227715
     20          1           0       -5.762588    0.346334    0.079199
     21          1           0       -0.231558   -1.255648    0.828354
     22          1           0        0.218947    1.322676    1.039707
     23          1           0        4.042410   -1.381055    0.581560
     24          1           0        4.472405    0.224736    1.251714
     25          1           0       -0.799292   -0.986517   -1.831943
     26          1           0       -0.183233    1.950069   -1.364400
     27          1           0        1.441199    2.363093   -0.807101
     28          1           0        1.197545    0.960043   -1.848470
     29          1           0        4.872691   -0.657358   -1.654969
     30          1           0        6.159586   -0.511386   -0.433488
     31          1           0        5.281704    0.927165   -1.008324
 ---------------------------------------------------------------------

 SCF Done:  E(RwB97XD) =  -692.439223636     A.U. after   16 cycles

      1  C    Isotropic =    72.9781   Anisotropy =   171.2006

      2  C    Isotropic =    69.5231   Anisotropy =   176.3301

      3  C    Isotropic =    69.7829   Anisotropy =   174.1413

      4  C    Isotropic =    53.3366   Anisotropy =   183.4486

      5  C    Isotropic =    69.1021   Anisotropy =   173.5494

      6  C    Isotropic =    71.4676   Anisotropy =   178.2644

      7  C    Isotropic =   120.3963   Anisotropy =    29.8582

      8  C    Isotropic =   152.2740   Anisotropy =    20.5712

      9  C    Isotropic =    16.5565   Anisotropy =   103.3596

     10  O    Isotropic =   124.5822   Anisotropy =   150.7293

     11  C    Isotropic =   136.0332   Anisotropy =    59.4749

     12  O    Isotropic =   272.1491   Anisotropy =    77.7330

     13  C    Isotropic =   185.5208   Anisotropy =    11.2605

     14  O    Isotropic =   -41.4624   Anisotropy =   537.1344

     15  C    Isotropic =   182.3639   Anisotropy =    23.1384

     16  H    Isotropic =    23.7918   Anisotropy =    10.5939

     17  H    Isotropic =    23.6564   Anisotropy =     4.7959

     18  H    Isotropic =    23.7857   Anisotropy =     5.3089

     19  H    Isotropic =    23.2509   Anisotropy =     9.5390

     20  H    Isotropic =    23.6888   Anisotropy =     4.2607

     21  H    Isotropic =    26.3901   Anisotropy =     3.2949

     22  H    Isotropic =    28.3396   Anisotropy =     5.7328

     23  H    Isotropic =    27.4589   Anisotropy =     6.4220

     24  H    Isotropic =    27.4935   Anisotropy =     6.8797

     25  H    Isotropic =    30.1195   Anisotropy =    13.4579

     26  H    Isotropic =    30.5742   Anisotropy =     9.2177

     27  H    Isotropic =    30.4546   Anisotropy =     9.6698

     28  H    Isotropic =    29.7923   Anisotropy =     7.0065

     29  H    Isotropic =    30.2075   Anisotropy =     7.8529

     30  H    Isotropic =    30.3544   Anisotropy =    10.9918

     31  H    Isotropic =    30.2650   Anisotropy =     8.2018

 The electronic state is 1-A.
 Alpha  occ. eigenvalues --  -19.32764 -19.28134 -19.27241 -10.43782 -10.36352
 Alpha  occ. eigenvalues --  -10.34927 -10.32190 -10.31849 -10.31096 -10.31058
 Alpha  occ. eigenvalues --  -10.30893 -10.30881 -10.30730 -10.28728 -10.28542
 Alpha  occ. eigenvalues --   -1.20991  -1.12963  -1.12172  -0.96413  -0.91022
 Alpha  occ. eigenvalues --   -0.86993  -0.85296  -0.84839  -0.78180  -0.75132
 Alpha  occ. eigenvalues --   -0.71414  -0.70140  -0.68112  -0.65606  -0.62559
 Alpha  occ. eigenvalues --   -0.58904  -0.58454  -0.57223  -0.56722  -0.55335
 Alpha  occ. eigenvalues --   -0.54340  -0.53294  -0.52096  -0.50665  -0.49052
 Alpha  occ. eigenvalues --   -0.48441  -0.47584  -0.47100  -0.46045  -0.45328
 Alpha  occ. eigenvalues --   -0.44642  -0.44325  -0.43175  -0.42552  -0.42066
 Alpha  occ. eigenvalues --   -0.40694  -0.38700  -0.37161  -0.36035  -0.33548
 Alpha  occ. eigenvalues --   -0.32779
 Alpha virt. eigenvalues --    0.04435   0.05039   0.06812   0.07175   0.07947
 Alpha virt. eigenvalues --    0.08430   0.08831   0.09261   0.10034   0.10269
 Alpha virt. eigenvalues --    0.10887   0.11049   0.11515   0.11952   0.12687

 Mulliken atomic charges:
              1
     1  C    0.028497
     2  C   -0.291509
     3  C   -0.444547
     4  C    0.004269
     5  C   -0.059278
     6  C   -0.174681
     7  C    0.011592
     8  C    0.692654
     9  C   -0.362171
    10  O   -0.259621
    11  C    0.113319
    12  O   -0.588820
    13  C   -0.599506
    14  O   -0.476843
    15  C   -0.690351
    16  H    0.170434
    17  H    0.187526
    18  H    0.186018
    19  H    0.190632
    20  H    0.184374
    21  H    0.179365
    22  H    0.194572
    23  H    0.175546
    24  H    0.173911
    25  H    0.397622
    26  H    0.165809
    27  H    0.172678
    28  H    0.186761
    29  H    0.176953
    30  H    0.180337
    31  H    0.174457
 Sum of Mulliken atomic charges =   0.00000

 Dipole moment (field-independent basis, Debye):
    X=             -1.2534    Y=              1.8878    Z=             -1.8656  Tot=              2.9352
 Quadrupole moment (field-independent basis, Debye-Ang):
   XX=            -69.7222   YY=            -85.0062   ZZ=            -99.1365
   XY=              1.3283   XZ=             -0.9174   YZ=              2.5804

 Normal termination of Gaussian 09 at Tue May 17 21:24:39 2022.
