 Gaussian 09, Revision C.01,
 Gaussian 09:  EM64L-G09RevC.01 23-Sep-2011

 ----------------------------------------------------------------
 # wb97xd/6-31+g** scrf=(pcm,solvent=chloroform,smd,dovacuum) nmr
 ----------------------------------------------------------------

 99/9=1/99;
 -------
 comment
 -------
 Charge =  0 Multiplicity = 1

                         Standard orientation:
 ---------------------------------------------------------------------
 Center     Atomic      Atomic             Coordinates (Angstroms)
 Number     Number       Type             X           Y           Z
 ---------------------------------------------------------------------
      1          6           0        2.495284    0.431457    0.866963
      2          6           0        2.381554   -1.767484   -0.836674
      3          6           0        3.345172   -0.657460    1.072327
      4          6           0        1.570511    0.436299   -0.191030
      5          6           0        1.531083   -0.678656   -1.042730
      6          6           0        3.286406   -1.757728    0.221495
      7          6           0        0.641532    1.623699   -0.373200
      8          6           0       -0.724877    1.522585    0.337901
      9          6           0       -1.506436    0.336473   -0.197382
     10          8           0       -2.027023   -0.442224    0.784678
     11          6           0       -2.764130   -1.596217    0.354450
     12          8           0        0.478333    1.924097   -1.763618
     13          6           0       -0.587021    1.536734    1.861656
     14          8           0       -1.658090    0.140401   -1.400289
     15          6           0       -4.215018   -1.227770    0.109028
     16          1           0        2.563494    1.282281    1.541869
     17          1           0        2.339872   -2.620868   -1.508665
     18          1           0        4.055958   -0.644300    1.894497
     19          1           0        0.843138   -0.710693   -1.884766
     20          1           0        3.949969   -2.603907    0.377970
     21          1           0        1.159270    2.505723    0.025510
     22          1           0       -1.323320    2.401699    0.060944
     23          1           0       -2.702712   -2.333699    1.161391
     24          1           0       -2.309193   -2.051473   -0.532774
     25          1           0       -0.211683    1.327906   -2.116869
     26          1           0        0.000748    2.399196    2.192880
     27          1           0       -1.571732    1.608305    2.337262
     28          1           0       -0.108582    0.627750    2.240500
     29          1           0       -4.653765   -0.776485    1.005010
     30          1           0       -4.798899   -2.111493   -0.163257
     31          1           0       -4.302666   -0.489728   -0.694500
 ---------------------------------------------------------------------

 SCF Done:  E(RwB97XD) =  -692.446773205     A.U. after   15 cycles

      1  C    Isotropic =    70.0719   Anisotropy =   165.7923

      2  C    Isotropic =    69.5160   Anisotropy =   175.3437

      3  C    Isotropic =    71.0014   Anisotropy =   172.4618

      4  C    Isotropic =    54.1910   Anisotropy =   181.0954

      5  C    Isotropic =    72.7263   Anisotropy =   180.7863

      6  C    Isotropic =    72.1958   Anisotropy =   176.2913

      7  C    Isotropic =   119.5363   Anisotropy =    43.7942

      8  C    Isotropic =   149.4327   Anisotropy =    15.9651

      9  C    Isotropic =    19.1044   Anisotropy =   104.4511

     10  O    Isotropic =   122.7365   Anisotropy =   178.9107

     11  C    Isotropic =   137.4638   Anisotropy =    66.4073

     12  O    Isotropic =   278.4111   Anisotropy =    38.1419

     13  C    Isotropic =   181.8051   Anisotropy =    15.8106

     14  O    Isotropic =   -30.8138   Anisotropy =   528.3715

     15  C    Isotropic =   181.6040   Anisotropy =    26.6992

     16  H    Isotropic =    23.8775   Anisotropy =     8.2496

     17  H    Isotropic =    23.8030   Anisotropy =     5.3461

     18  H    Isotropic =    23.8710   Anisotropy =     4.7053

     19  H    Isotropic =    23.6903   Anisotropy =     9.4837

     20  H    Isotropic =    23.8436   Anisotropy =     4.1392

     21  H    Isotropic =    26.8700   Anisotropy =     5.5846

     22  H    Isotropic =    28.4011   Anisotropy =     6.0029

     23  H    Isotropic =    28.0353   Anisotropy =     7.2740

     24  H    Isotropic =    27.0701   Anisotropy =     5.1414

     25  H    Isotropic =    26.1374   Anisotropy =    17.4426

     26  H    Isotropic =    30.7259   Anisotropy =     9.7319

     27  H    Isotropic =    30.2713   Anisotropy =    10.0826

     28  H    Isotropic =    30.8123   Anisotropy =     5.1840

     29  H    Isotropic =    30.5163   Anisotropy =     8.8500

     30  H    Isotropic =    30.6780   Anisotropy =    11.6196

     31  H    Isotropic =    30.2679   Anisotropy =     6.3582

 The electronic state is 1-A.
 Alpha  occ. eigenvalues --  -19.33507 -19.28379 -19.27263 -10.44892 -10.36093
 Alpha  occ. eigenvalues --  -10.35346 -10.32370 -10.31449 -10.30665 -10.30585
 Alpha  occ. eigenvalues --  -10.30566 -10.30528 -10.30411 -10.29030 -10.28852
 Alpha  occ. eigenvalues --   -1.21767  -1.13676  -1.11773  -0.96118  -0.91500
 Alpha  occ. eigenvalues --   -0.86902  -0.85076  -0.84622  -0.77402  -0.76530
 Alpha  occ. eigenvalues --   -0.72472  -0.69945  -0.67920  -0.65374  -0.62161
 Alpha  occ. eigenvalues --   -0.59851  -0.59000  -0.58202  -0.55463  -0.55349
 Alpha  occ. eigenvalues --   -0.53363  -0.52747  -0.51110  -0.51008  -0.50426
 Alpha  occ. eigenvalues --   -0.49172  -0.47831  -0.47082  -0.46845  -0.45923
 Alpha  occ. eigenvalues --   -0.45555  -0.44382  -0.42483  -0.42141  -0.41914
 Alpha  occ. eigenvalues --   -0.41596  -0.39360  -0.36859  -0.36157  -0.33141
 Alpha  occ. eigenvalues --   -0.32447
 Alpha virt. eigenvalues --    0.04977   0.05114   0.06168   0.06990   0.08043
 Alpha virt. eigenvalues --    0.08262   0.08645   0.09322   0.09637   0.10382
 Alpha virt. eigenvalues --    0.10612   0.10949   0.12031   0.12132   0.12689

 Mulliken atomic charges:
              1
     1  C   -0.216836
     2  C   -0.277819
     3  C   -0.252886
     4  C    0.026245
     5  C    0.230535
     6  C   -0.201726
     7  C   -0.275745
     8  C    0.182736
     9  C   -0.026764
    10  O   -0.219587
    11  C    0.033035
    12  O   -0.480885
    13  C   -0.609602
    14  O   -0.472980
    15  C   -0.526575
    16  H    0.174834
    17  H    0.182966
    18  H    0.183743
    19  H    0.167689
    20  H    0.182155
    21  H    0.163575
    22  H    0.222356
    23  H    0.175175
    24  H    0.181585
    25  H    0.385586
    26  H    0.171226
    27  H    0.177103
    28  H    0.186769
    29  H    0.174902
    30  H    0.179301
    31  H    0.179890
 Sum of Mulliken atomic charges =   0.00000

 Dipole moment (field-independent basis, Debye):
    X=             -1.8187    Y=             -1.9363    Z=              3.7635  Tot=              4.6066
 Quadrupole moment (field-independent basis, Debye-Ang):
   XX=            -82.7495   YY=            -84.0627   ZZ=            -94.5669
   XY=             -0.5903   XZ=              3.0374   YZ=              8.6283

 Normal termination of Gaussian 09 at Tue May 17 19:47:26 2022.
