 Gaussian 09, Revision C.01,
 Gaussian 09:  EM64L-G09RevC.01 23-Sep-2011

 ----------------------------------------------------------------
 # wb97xd/6-31+g** scrf=(pcm,solvent=chloroform,smd,dovacuum) nmr
 ----------------------------------------------------------------

 99/9=1/99;
 -------
 comment
 -------
 Charge =  0 Multiplicity = 1

                         Standard orientation:
 ---------------------------------------------------------------------
 Center     Atomic      Atomic             Coordinates (Angstroms)
 Number     Number       Type             X           Y           Z
 ---------------------------------------------------------------------
      1          6           0       -1.836626    1.490521    0.004916
      2          6           0       -3.996221   -0.268922   -0.108562
      3          6           0       -3.106103    1.961381   -0.335306
      4          6           0       -1.631946    0.133074    0.298983
      5          6           0       -2.727732   -0.741510    0.232096
      6          6           0       -4.185156    1.082048   -0.390650
      7          6           0       -0.237943   -0.356848    0.653557
      8          6           0        0.544271   -0.837133   -0.581079
      9          6           0        2.030016   -0.723579   -0.295327
     10          8           0        2.386329    0.593583   -0.209749
     11          6           0        3.780846    0.808936    0.040743
     12          8           0       -0.315563   -1.378421    1.649125
     13          6           0        0.203922   -2.260512   -1.027522
     14          8           0        2.813090   -1.658073   -0.196202
     15          6           0        4.018347    2.303649    0.131724
     16          1           0       -1.005953    2.193052    0.037872
     17          1           0       -4.836474   -0.956981   -0.156946
     18          1           0       -3.252893    3.014953   -0.559417
     19          1           0       -2.598249   -1.802175    0.440953
     20          1           0       -5.173018    1.448850   -0.657081
     21          1           0        0.285128    0.475201    1.140946
     22          1           0        0.353060   -0.173272   -1.435805
     23          1           0        4.372542    0.389366   -0.780471
     24          1           0        4.065752    0.331231    0.984835
     25          1           0       -0.988789   -1.097518    2.293789
     26          1           0       -0.846346   -2.345825   -1.320147
     27          1           0        0.809836   -2.545759   -1.895238
     28          1           0        0.403472   -2.995070   -0.240010
     29          1           0        3.718222    2.798920   -0.797653
     30          1           0        5.073005    2.520328    0.323009
     31          1           0        3.415815    2.741370    0.934536
 ---------------------------------------------------------------------

 SCF Done:  E(RwB97XD) =  -692.442216853     A.U. after   16 cycles

      1  C    Isotropic =    71.9158   Anisotropy =   164.1657

      2  C    Isotropic =    69.9363   Anisotropy =   176.1185

      3  C    Isotropic =    70.1475   Anisotropy =   174.4624

      4  C    Isotropic =    49.5885   Anisotropy =   184.5199

      5  C    Isotropic =    73.4450   Anisotropy =   177.8963

      6  C    Isotropic =    72.0676   Anisotropy =   176.4739

      7  C    Isotropic =   121.3608   Anisotropy =    36.1232

      8  C    Isotropic =   149.5781   Anisotropy =    20.6365

      9  C    Isotropic =    17.5007   Anisotropy =    95.9893

     10  O    Isotropic =   133.2802   Anisotropy =   175.3709

     11  C    Isotropic =   136.4831   Anisotropy =    58.6142

     12  O    Isotropic =   290.3073   Anisotropy =    77.8335

     13  C    Isotropic =   188.0785   Anisotropy =    10.5337

     14  O    Isotropic =   -54.0887   Anisotropy =   578.1178

     15  C    Isotropic =   182.3379   Anisotropy =    23.2759

     16  H    Isotropic =    23.7548   Anisotropy =     8.0784

     17  H    Isotropic =    23.6636   Anisotropy =     5.1866

     18  H    Isotropic =    23.8174   Anisotropy =     5.0505

     19  H    Isotropic =    23.3727   Anisotropy =     9.7729

     20  H    Isotropic =    23.7788   Anisotropy =     4.2900

     21  H    Isotropic =    26.1535   Anisotropy =     6.6791

     22  H    Isotropic =    28.8544   Anisotropy =     4.8654

     23  H    Isotropic =    27.4669   Anisotropy =     6.8695

     24  H    Isotropic =    27.4344   Anisotropy =     6.3238

     25  H    Isotropic =    30.0006   Anisotropy =    16.2422

     26  H    Isotropic =    30.5696   Anisotropy =     9.3780

     27  H    Isotropic =    30.7324   Anisotropy =    10.6534

     28  H    Isotropic =    29.7954   Anisotropy =     7.8817

     29  H    Isotropic =    30.2681   Anisotropy =     8.3240

     30  H    Isotropic =    30.3496   Anisotropy =    10.9079

     31  H    Isotropic =    30.2284   Anisotropy =     7.8471

 The electronic state is 1-A.
 Alpha  occ. eigenvalues --  -19.32609 -19.28279 -19.27587 -10.43754 -10.36255
 Alpha  occ. eigenvalues --  -10.34950 -10.32103 -10.31656 -10.30849 -10.30808
 Alpha  occ. eigenvalues --  -10.30783 -10.30750 -10.30608 -10.28816 -10.28447
 Alpha  occ. eigenvalues --   -1.20870  -1.13197  -1.12364  -0.96319  -0.91349
 Alpha  occ. eigenvalues --   -0.86816  -0.85273  -0.84839  -0.78061  -0.75441
 Alpha  occ. eigenvalues --   -0.70328  -0.70085  -0.67936  -0.65074  -0.62521
 Alpha  occ. eigenvalues --   -0.59582  -0.58988  -0.58347  -0.56706  -0.54964
 Alpha  occ. eigenvalues --   -0.53656  -0.53228  -0.51166  -0.50397  -0.50097
 Alpha  occ. eigenvalues --   -0.48858  -0.47889  -0.47008  -0.45680  -0.44872
 Alpha  occ. eigenvalues --   -0.44222  -0.43862  -0.43297  -0.43029  -0.42518
 Alpha  occ. eigenvalues --   -0.40795  -0.38889  -0.37510  -0.35814  -0.33420
 Alpha  occ. eigenvalues --   -0.32448
 Alpha virt. eigenvalues --    0.04694   0.05189   0.06304   0.07332   0.07977
 Alpha virt. eigenvalues --    0.08080   0.08645   0.09510   0.09578   0.10286
 Alpha virt. eigenvalues --    0.10842   0.11170   0.11428   0.12160   0.13010

 Mulliken atomic charges:
              1
     1  C   -0.002073
     2  C   -0.355514
     3  C   -0.342390
     4  C   -0.140311
     5  C   -0.081861
     6  C   -0.130955
     7  C    0.185026
     8  C    0.451622
     9  C   -0.151964
    10  O   -0.290243
    11  C    0.097218
    12  O   -0.560270
    13  C   -0.620734
    14  O   -0.480810
    15  C   -0.687377
    16  H    0.179548
    17  H    0.185262
    18  H    0.184935
    19  H    0.185280
    20  H    0.182708
    21  H    0.165367
    22  H    0.217467
    23  H    0.175215
    24  H    0.174468
    25  H    0.398866
    26  H    0.170315
    27  H    0.172460
    28  H    0.187176
    29  H    0.175457
    30  H    0.180857
    31  H    0.175254
 Sum of Mulliken atomic charges =   0.00000

 Dipole moment (field-independent basis, Debye):
    X=             -1.9155    Y=              3.8974    Z=             -0.3079  Tot=              4.3536
 Quadrupole moment (field-independent basis, Debye-Ang):
   XX=            -80.5516   YY=            -92.4589   ZZ=            -88.7664
   XY=             12.0161   XZ=             -0.4565   YZ=              1.3673

 Normal termination of Gaussian 09 at Tue May 17 17:08:30 2022.
