 Gaussian 09, Revision C.01,
 Gaussian 09:  EM64L-G09RevC.01 23-Sep-2011

 ----------------------------------------------------------------
 # wb97xd/6-31+g** scrf=(pcm,solvent=chloroform,smd,dovacuum) nmr
 ----------------------------------------------------------------

 99/9=1/99;
 -------
 comment
 -------
 Charge =  0 Multiplicity = 1

                         Standard orientation:
 ---------------------------------------------------------------------
 Center     Atomic      Atomic             Coordinates (Angstroms)
 Number     Number       Type             X           Y           Z
 ---------------------------------------------------------------------
      1          6           0       -1.402665   -1.005341   -0.957436
      2          6           0       -3.264751   -0.273378    0.985253
      3          6           0       -2.402764   -1.900343   -0.573842
      4          6           0       -1.321248    0.266951   -0.371879
      5          6           0       -2.265775    0.623042    0.603435
      6          6           0       -3.332663   -1.534352    0.396967
      7          6           0       -0.227594    1.231169   -0.791292
      8          6           0        0.769332    1.566037    0.328341
      9          6           0        1.439565    0.321888    0.867358
     10          8           0        1.925492   -0.461205   -0.135782
     11          6           0        2.574175   -1.656855    0.313983
     12          8           0       -0.843470    2.439530   -1.256190
     13          6           0        1.844461    2.552780   -0.128381
     14          8           0        1.567666    0.083984    2.062047
     15          6           0        2.993961   -2.451738   -0.906855
     16          1           0       -0.683308   -1.312503   -1.714072
     17          1           0       -3.988724    0.012028    1.744329
     18          1           0       -2.455359   -2.885222   -1.030942
     19          1           0       -2.228058    1.605024    1.071946
     20          1           0       -4.109613   -2.232709    0.697080
     21          1           0        0.305567    0.818595   -1.656676
     22          1           0        0.231235    2.033776    1.163415
     23          1           0        1.881159   -2.250907    0.920387
     24          1           0        3.456512   -1.395140    0.908392
     25          1           0       -1.695742    2.192990   -1.657460
     26          1           0        1.405925    3.517943   -0.401043
     27          1           0        2.573949    2.729991    0.669745
     28          1           0        2.393895    2.170708   -0.995865
     29          1           0        2.123060   -2.700292   -1.522510
     30          1           0        3.496942   -3.378008   -0.615603
     31          1           0        3.670851   -1.863911   -1.535634
 ---------------------------------------------------------------------

 SCF Done:  E(RwB97XD) =  -692.445889438     A.U. after   16 cycles

      1  C    Isotropic =    69.8519   Anisotropy =   161.5834

      2  C    Isotropic =    69.2842   Anisotropy =   178.2632

      3  C    Isotropic =    70.2178   Anisotropy =   174.1024

      4  C    Isotropic =    52.5938   Anisotropy =   186.4565

      5  C    Isotropic =    72.6849   Anisotropy =   180.0949

      6  C    Isotropic =    70.9122   Anisotropy =   178.1181

      7  C    Isotropic =   119.7164   Anisotropy =    27.6187

      8  C    Isotropic =   145.7218   Anisotropy =    26.8298

      9  C    Isotropic =    19.6533   Anisotropy =   104.7796

     10  O    Isotropic =   134.7864   Anisotropy =   154.6693

     11  C    Isotropic =   136.6890   Anisotropy =    59.0788

     12  O    Isotropic =   271.8865   Anisotropy =    49.9207

     13  C    Isotropic =   179.5839   Anisotropy =    28.3464

     14  O    Isotropic =   -54.8610   Anisotropy =   529.7431

     15  C    Isotropic =   182.3980   Anisotropy =    22.7527

     16  H    Isotropic =    23.7153   Anisotropy =     7.0333

     17  H    Isotropic =    23.7011   Anisotropy =     5.0353

     18  H    Isotropic =    23.9115   Anisotropy =     5.1819

     19  H    Isotropic =    23.3374   Anisotropy =     9.4201

     20  H    Isotropic =    23.7491   Anisotropy =     4.3250

     21  H    Isotropic =    26.6551   Anisotropy =     6.6607

     22  H    Isotropic =    28.4132   Anisotropy =     5.4425

     23  H    Isotropic =    27.9784   Anisotropy =     5.6192

     24  H    Isotropic =    27.7322   Anisotropy =     7.7734

     25  H    Isotropic =    30.0442   Anisotropy =    13.9602

     26  H    Isotropic =    29.7671   Anisotropy =     9.0704

     27  H    Isotropic =    30.3782   Anisotropy =     9.7918

     28  H    Isotropic =    30.3209   Anisotropy =     7.8817

     29  H    Isotropic =    30.3050   Anisotropy =     7.4902

     30  H    Isotropic =    30.4638   Anisotropy =    11.2408

     31  H    Isotropic =    30.2850   Anisotropy =     8.3044

 The electronic state is 1-A.
 Alpha  occ. eigenvalues --  -19.32944 -19.28156 -19.27601 -10.44052 -10.35951
 Alpha  occ. eigenvalues --  -10.35077 -10.31873 -10.31636 -10.30936 -10.30926
 Alpha  occ. eigenvalues --  -10.30822 -10.30790 -10.30714 -10.29079 -10.28876
 Alpha  occ. eigenvalues --   -1.21166  -1.12920  -1.12487  -0.96395  -0.91635
 Alpha  occ. eigenvalues --   -0.86726  -0.85561  -0.84931  -0.77784  -0.75215
 Alpha  occ. eigenvalues --   -0.71228  -0.69999  -0.68533  -0.65818  -0.62180
 Alpha  occ. eigenvalues --   -0.59823  -0.58696  -0.57455  -0.56331  -0.54945
 Alpha  occ. eigenvalues --   -0.53625  -0.52920  -0.52253  -0.50658  -0.49744
 Alpha  occ. eigenvalues --   -0.49120  -0.47820  -0.47560  -0.46010  -0.45540
 Alpha  occ. eigenvalues --   -0.45043  -0.43962  -0.43450  -0.43018  -0.42366
 Alpha  occ. eigenvalues --   -0.40047  -0.38972  -0.37268  -0.35965  -0.33480
 Alpha  occ. eigenvalues --   -0.32708
 Alpha virt. eigenvalues --    0.04536   0.05210   0.06667   0.07023   0.07891
 Alpha virt. eigenvalues --    0.08200   0.08443   0.09501   0.09580   0.10035
 Alpha virt. eigenvalues --    0.10723   0.11383   0.11651   0.12013   0.12826

 Mulliken atomic charges:
              1
     1  C   -0.049609
     2  C   -0.192476
     3  C   -0.327852
     4  C   -0.587633
     5  C    0.088119
     6  C   -0.122240
     7  C    0.352786
     8  C    0.192643
     9  C   -0.025427
    10  O   -0.262137
    11  C    0.095269
    12  O   -0.558893
    13  C   -0.577090
    14  O   -0.460666
    15  C   -0.654262
    16  H    0.173324
    17  H    0.186356
    18  H    0.184653
    19  H    0.183131
    20  H    0.183866
    21  H    0.150978
    22  H    0.198354
    23  H    0.174592
    24  H    0.176980
    25  H    0.398032
    26  H    0.189108
    27  H    0.180133
    28  H    0.178632
    29  H    0.174579
    30  H    0.181119
    31  H    0.175632
 Sum of Mulliken atomic charges =   0.00000

 Dipole moment (field-independent basis, Debye):
    X=             -0.5844    Y=             -2.2969    Z=             -2.4274  Tot=              3.3926
 Quadrupole moment (field-independent basis, Debye-Ang):
   XX=            -79.1189   YY=            -85.7170   ZZ=            -96.7306
   XY=             -1.6384   XZ=             -5.4615   YZ=              4.1115

 Normal termination of Gaussian 09 at Tue May 17 16:00:16 2022.
