 Gaussian 09, Revision C.01,
 Gaussian 09:  EM64L-G09RevC.01 23-Sep-2011

 ----------------------------------------------------------------
 # wb97xd/6-31+g** scrf=(pcm,solvent=chloroform,smd,dovacuum) nmr
 ----------------------------------------------------------------

 99/9=1/99;
 -------
 comment
 -------
 Charge =  0 Multiplicity = 1

                         Standard orientation:
 ---------------------------------------------------------------------
 Center     Atomic      Atomic             Coordinates (Angstroms)
 Number     Number       Type             X           Y           Z
 ---------------------------------------------------------------------
      1          6           0        2.239644    1.373153   -0.062371
      2          6           0        3.949684   -0.814370   -0.299933
      3          6           0        3.618246    1.543736    0.079922
      4          6           0        1.696587    0.104750   -0.327306
      5          6           0        2.571316   -0.986157   -0.441911
      6          6           0        4.472539    0.449987   -0.038778
      7          6           0        0.191941   -0.056328   -0.452421
      8          6           0       -0.484209   -0.172049    0.925776
      9          6           0       -1.927036    0.264125    0.801348
     10          8           0       -2.596762   -0.499247   -0.109419
     11          6           0       -3.984007   -0.175980   -0.296541
     12          8           0       -0.100362   -1.186675   -1.279000
     13          6           0       -0.414107   -1.558684    1.562100
     14          8           0       -2.414776    1.188546    1.437607
     15          6           0       -4.126688    0.911361   -1.344611
     16          1           0        1.589989    2.240507    0.035319
     17          1           0        4.613829   -1.669225   -0.395903
     18          1           0        4.025461    2.530804    0.282884
     19          1           0        2.180141   -1.980582   -0.648443
     20          1           0        5.545552    0.582570    0.070219
     21          1           0       -0.188985    0.819504   -0.994429
     22          1           0       -0.020401    0.543247    1.618806
     23          1           0       -4.458398    0.110804    0.648874
     24          1           0       -4.480404   -1.088590   -0.642192
     25          1           0       -1.070338   -1.233655   -1.362960
     26          1           0        0.622821   -1.858525    1.741056
     27          1           0       -0.934213   -1.563723    2.526668
     28          1           0       -0.888581   -2.323498    0.938285
     29          1           0       -3.635986    1.835004   -1.021822
     30          1           0       -5.181055    1.125764   -1.540330
     31          1           0       -3.647683    0.607340   -2.281174
 ---------------------------------------------------------------------

 SCF Done:  E(RwB97XD) =  -692.444922391     A.U. after   16 cycles

      1  C    Isotropic =    71.5459   Anisotropy =   165.4629

      2  C    Isotropic =    70.6882   Anisotropy =   175.1054

      3  C    Isotropic =    70.1746   Anisotropy =   174.3464

      4  C    Isotropic =    53.8519   Anisotropy =   180.4298

      5  C    Isotropic =    73.0665   Anisotropy =   181.9062

      6  C    Isotropic =    72.4102   Anisotropy =   175.0465

      7  C    Isotropic =   123.9374   Anisotropy =    42.3849

      8  C    Isotropic =   145.2081   Anisotropy =    26.4986

      9  C    Isotropic =    18.1293   Anisotropy =   101.2301

     10  O    Isotropic =   143.1440   Anisotropy =   161.6362

     11  C    Isotropic =   137.1902   Anisotropy =    67.5623

     12  O    Isotropic =   302.3741   Anisotropy =    70.2449

     13  C    Isotropic =   187.3560   Anisotropy =    15.8009

     14  O    Isotropic =   -44.1422   Anisotropy =   520.4524

     15  C    Isotropic =   181.2585   Anisotropy =    26.2265

     16  H    Isotropic =    23.8184   Anisotropy =     8.8430

     17  H    Isotropic =    23.7560   Anisotropy =     5.1055

     18  H    Isotropic =    23.7564   Anisotropy =     4.9029

     19  H    Isotropic =    23.3486   Anisotropy =    10.4228

     20  H    Isotropic =    23.8158   Anisotropy =     4.1171

     21  H    Isotropic =    26.4241   Anisotropy =     5.7765

     22  H    Isotropic =    28.8737   Anisotropy =     5.4977

     23  H    Isotropic =    26.7987   Anisotropy =     6.6961

     24  H    Isotropic =    27.6297   Anisotropy =     8.1586

     25  H    Isotropic =    28.3216   Anisotropy =    20.9313

     26  H    Isotropic =    30.5769   Anisotropy =     9.1647

     27  H    Isotropic =    30.7496   Anisotropy =    10.5379

     28  H    Isotropic =    30.0761   Anisotropy =     6.7756

     29  H    Isotropic =    30.1976   Anisotropy =     6.5260

     30  H    Isotropic =    30.5276   Anisotropy =    11.7266

     31  H    Isotropic =    30.4097   Anisotropy =     7.4637

 The electronic state is 1-A.
 Alpha  occ. eigenvalues --  -19.33706 -19.27943 -19.27875 -10.44314 -10.36287
 Alpha  occ. eigenvalues --  -10.35501 -10.31901 -10.31660 -10.30681 -10.30576
 Alpha  occ. eigenvalues --  -10.30504 -10.30415 -10.30357 -10.29162 -10.28943
 Alpha  occ. eigenvalues --   -1.21661  -1.13145  -1.12631  -0.96139  -0.91514
 Alpha  occ. eigenvalues --   -0.87085  -0.85186  -0.84578  -0.78257  -0.76240
 Alpha  occ. eigenvalues --   -0.71813  -0.69952  -0.67188  -0.65674  -0.60790
 Alpha  occ. eigenvalues --   -0.59960  -0.59639  -0.58730  -0.56281  -0.54581
 Alpha  occ. eigenvalues --   -0.53943  -0.52902  -0.52261  -0.50535  -0.50061
 Alpha  occ. eigenvalues --   -0.49896  -0.48108  -0.46667  -0.46557  -0.46021
 Alpha  occ. eigenvalues --   -0.44594  -0.44423  -0.43161  -0.42253  -0.42100
 Alpha  occ. eigenvalues --   -0.40951  -0.39433  -0.36938  -0.36278  -0.33137
 Alpha  occ. eigenvalues --   -0.32298
 Alpha virt. eigenvalues --    0.04987   0.05569   0.06269   0.07308   0.07659
 Alpha virt. eigenvalues --    0.08133   0.08894   0.09159   0.09905   0.10307
 Alpha virt. eigenvalues --    0.10628   0.10977   0.11264   0.11993   0.12793

 Mulliken atomic charges:
              1
     1  C   -0.104620
     2  C   -0.271903
     3  C   -0.250710
     4  C   -0.223306
     5  C   -0.024774
     6  C   -0.177554
     7  C    0.219477
     8  C    0.021337
     9  C    0.249382
    10  O   -0.332890
    11  C   -0.033149
    12  O   -0.597169
    13  C   -0.612800
    14  O   -0.485706
    15  C   -0.501554
    16  H    0.177704
    17  H    0.184100
    18  H    0.184150
    19  H    0.185311
    20  H    0.181326
    21  H    0.158757
    22  H    0.199722
    23  H    0.183459
    24  H    0.176568
    25  H    0.415671
    26  H    0.182450
    27  H    0.179122
    28  H    0.184250
    29  H    0.179198
    30  H    0.180106
    31  H    0.174043
 Sum of Mulliken atomic charges =   0.00000

 Dipole moment (field-independent basis, Debye):
    X=             -1.6407    Y=             -0.5541    Z=             -0.4710  Tot=              1.7947
 Quadrupole moment (field-independent basis, Debye-Ang):
   XX=            -73.4789   YY=            -89.1027   ZZ=            -96.6859
   XY=              6.3361   XZ=              9.6531   YZ=             -5.0192

 Normal termination of Gaussian 09 at Tue May 17 15:15:59 2022.
