 Gaussian 09, Revision C.01,
 Gaussian 09:  EM64L-G09RevC.01 23-Sep-2011

 ----------------------------------------------------------------
 # wb97xd/6-31+g** scrf=(pcm,solvent=chloroform,smd,dovacuum) nmr
 ----------------------------------------------------------------

 99/9=1/99;
 -------
 comment
 -------
 Charge =  0 Multiplicity = 1

                         Standard orientation:
 ---------------------------------------------------------------------
 Center     Atomic      Atomic             Coordinates (Angstroms)
 Number     Number       Type             X           Y           Z
 ---------------------------------------------------------------------
      1          6           0        2.211158    1.245155   -0.757858
      2          6           0        4.105880   -0.254529    0.630085
      3          6           0        3.469142    1.786512   -0.484803
      4          6           0        1.882782   -0.055528   -0.340240
      5          6           0        2.848300   -0.796584    0.357672
      6          6           0        4.415618    1.036682    0.209542
      7          6           0        0.499566   -0.612093   -0.630592
      8          6           0       -0.550176   -0.100459    0.375091
      9          6           0       -1.923482   -0.362385   -0.200762
     10          8           0       -2.812900    0.566887    0.245637
     11          6           0       -4.151585    0.380832   -0.230730
     12          8           0        0.543181   -2.041480   -0.648553
     13          6           0       -0.468142   -0.752538    1.753658
     14          8           0       -2.193358   -1.293355   -0.950121
     15          6           0       -5.018232    1.479827    0.352150
     16          1           0        1.487688    1.846788   -1.303640
     17          1           0        4.843227   -0.844003    1.168536
     18          1           0        3.711465    2.792878   -0.816052
     19          1           0        2.623972   -1.808292    0.690908
     20          1           0        5.395530    1.456363    0.420322
     21          1           0        0.233428   -0.303865   -1.650762
     22          1           0       -0.441455    0.987227    0.478870
     23          1           0       -4.526169   -0.596851    0.092486
     24          1           0       -4.165470    0.439000   -1.324817
     25          1           0       -0.323997   -2.335940   -0.991870
     26          1           0        0.500059   -0.564018    2.226663
     27          1           0       -1.243094   -0.351762    2.416834
     28          1           0       -0.621371   -1.835845    1.700140
     29          1           0       -4.996970    1.447861    1.446517
     30          1           0       -6.053949    1.379849    0.015772
     31          1           0       -4.643255    2.464845    0.055109
 ---------------------------------------------------------------------

 SCF Done:  E(RwB97XD) =  -692.447421167     A.U. after   16 cycles

      1  C    Isotropic =    71.7211   Anisotropy =   165.6260

      2  C    Isotropic =    70.3621   Anisotropy =   175.3965

      3  C    Isotropic =    70.4680   Anisotropy =   173.8298

      4  C    Isotropic =    53.9127   Anisotropy =   181.8347

      5  C    Isotropic =    72.6350   Anisotropy =   183.5836

      6  C    Isotropic =    72.3464   Anisotropy =   174.4104

      7  C    Isotropic =   122.0715   Anisotropy =    37.5178

      8  C    Isotropic =   147.7629   Anisotropy =    34.9293

      9  C    Isotropic =    14.1735   Anisotropy =   108.0007

     10  O    Isotropic =   131.4849   Anisotropy =   169.3534

     11  C    Isotropic =   136.6155   Anisotropy =    59.2010

     12  O    Isotropic =   304.8213   Anisotropy =    70.3240

     13  C    Isotropic =   186.8025   Anisotropy =    18.3619

     14  O    Isotropic =   -27.8106   Anisotropy =   523.7274

     15  C    Isotropic =   182.5350   Anisotropy =    23.1522

     16  H    Isotropic =    23.9099   Anisotropy =     8.7450

     17  H    Isotropic =    23.7261   Anisotropy =     5.0271

     18  H    Isotropic =    23.8236   Anisotropy =     4.9199

     19  H    Isotropic =    23.3723   Anisotropy =    10.2215

     20  H    Isotropic =    23.8568   Anisotropy =     4.0666

     21  H    Isotropic =    26.2628   Anisotropy =     5.8686

     22  H    Isotropic =    28.9141   Anisotropy =     5.5167

     23  H    Isotropic =    27.5143   Anisotropy =     6.3811

     24  H    Isotropic =    27.4785   Anisotropy =     6.2735

     25  H    Isotropic =    27.6887   Anisotropy =    20.2958

     26  H    Isotropic =    30.5816   Anisotropy =     8.6173

     27  H    Isotropic =    30.6726   Anisotropy =     9.9041

     28  H    Isotropic =    30.0960   Anisotropy =     7.5049

     29  H    Isotropic =    30.3309   Anisotropy =     8.2100

     30  H    Isotropic =    30.3743   Anisotropy =    10.8749

     31  H    Isotropic =    30.3243   Anisotropy =     8.4346

 The electronic state is 1-A.
 Alpha  occ. eigenvalues --  -19.33334 -19.28518 -19.27484 -10.44477 -10.35865
 Alpha  occ. eigenvalues --  -10.35274 -10.31940 -10.31545 -10.30648 -10.30547
 Alpha  occ. eigenvalues --  -10.30450 -10.30332 -10.30311 -10.29235 -10.28993
 Alpha  occ. eigenvalues --   -1.21672  -1.13676  -1.12022  -0.96066  -0.91437
 Alpha  occ. eigenvalues --   -0.87155  -0.85240  -0.84529  -0.77950  -0.75809
 Alpha  occ. eigenvalues --   -0.71065  -0.69847  -0.67233  -0.65799  -0.60989
 Alpha  occ. eigenvalues --   -0.59807  -0.59193  -0.58520  -0.57541  -0.54842
 Alpha  occ. eigenvalues --   -0.53989  -0.52758  -0.51746  -0.50660  -0.50124
 Alpha  occ. eigenvalues --   -0.49281  -0.47725  -0.46484  -0.46029  -0.45783
 Alpha  occ. eigenvalues --   -0.44747  -0.43944  -0.43512  -0.43077  -0.42116
 Alpha  occ. eigenvalues --   -0.40879  -0.39271  -0.37004  -0.36293  -0.33076
 Alpha  occ. eigenvalues --   -0.32259
 Alpha virt. eigenvalues --    0.05183   0.05589   0.06215   0.06875   0.08020
 Alpha virt. eigenvalues --    0.08464   0.08796   0.09383   0.09826   0.10314
 Alpha virt. eigenvalues --    0.10689   0.11283   0.11318   0.11623   0.12620

 Mulliken atomic charges:
              1
     1  C   -0.091114
     2  C   -0.276687
     3  C   -0.274371
     4  C   -0.225295
     5  C    0.050871
     6  C   -0.162401
     7  C    0.107536
     8  C    0.071254
     9  C    0.184972
    10  O   -0.298590
    11  C    0.138063
    12  O   -0.586422
    13  C   -0.544010
    14  O   -0.523864
    15  C   -0.688957
    16  H    0.175101
    17  H    0.183841
    18  H    0.183537
    19  H    0.186038
    20  H    0.180974
    21  H    0.159152
    22  H    0.200150
    23  H    0.176826
    24  H    0.176975
    25  H    0.406373
    26  H    0.186305
    27  H    0.177726
    28  H    0.190238
    29  H    0.176975
    30  H    0.182282
    31  H    0.176522
 Sum of Mulliken atomic charges =   0.00000

 Dipole moment (field-independent basis, Debye):
    X=             -2.4734    Y=              3.1662    Z=              1.0806  Tot=              4.1606
 Quadrupole moment (field-independent basis, Debye-Ang):
   XX=            -74.9370   YY=            -91.8442   ZZ=            -90.8739
   XY=              0.3056   XZ=              2.2604   YZ=             -6.4597

 Normal termination of Gaussian 09 at Tue May 17 15:26:59 2022.
