 Gaussian 09, Revision C.01,
 Gaussian 09:  EM64L-G09RevC.01 23-Sep-2011

 ----------------------------------------------------------------
 # wb97xd/6-31+g** scrf=(pcm,solvent=chloroform,smd,dovacuum) nmr
 ----------------------------------------------------------------

 99/9=1/99;
 -------
 comment
 -------
 Charge =  0 Multiplicity = 1

                         Standard orientation:
 ---------------------------------------------------------------------
 Center     Atomic      Atomic             Coordinates (Angstroms)
 Number     Number       Type             X           Y           Z
 ---------------------------------------------------------------------
      1          6           0        1.487974   -0.353387    1.195669
      2          6           0        3.048752   -0.255173   -1.112293
      3          6           0        2.500926   -1.293025    0.995076
      4          6           0        1.242087    0.648295    0.243437
      5          6           0        2.035301    0.683908   -0.913691
      6          6           0        3.280419   -1.243804   -0.158515
      7          6           0        0.112169    1.638691    0.455445
      8          6           0       -1.131882    1.287257   -0.374522
      9          6           0       -1.709756   -0.014412    0.131666
     10          8           0       -1.854490   -0.900242   -0.891302
     11          6           0       -2.367308   -2.192112   -0.536041
     12          8           0        0.592234    2.937989    0.090595
     13          6           0       -2.217318    2.360420   -0.296777
     14          8           0       -2.015935   -0.222737    1.298959
     15          6           0       -1.239391   -3.094894   -0.072240
     16          1           0        0.884981   -0.413872    2.100077
     17          1           0        3.658445   -0.211741   -2.010809
     18          1           0        2.680607   -2.063857    1.739896
     19          1           0        1.868323    1.454798   -1.663636
     20          1           0        4.070231   -1.973891   -0.313209
     21          1           0       -0.127845    1.680497    1.525956
     22          1           0       -0.853137    1.177252   -1.430750
     23          1           0       -2.827060   -2.611625   -1.436837
     24          1           0       -3.155929   -2.112506    0.220896
     25          1           0        0.114235    3.583373    0.637975
     26          1           0       -1.882517    3.296323   -0.755174
     27          1           0       -3.122513    2.036471   -0.822453
     28          1           0       -2.497246    2.569174    0.741777
     29          1           0       -0.450987   -3.147237   -0.830269
     30          1           0       -1.608118   -4.105306    0.125558
     31          1           0       -0.777782   -2.708521    0.841691
 ---------------------------------------------------------------------

 SCF Done:  E(RwB97XD) =  -692.446427050     A.U. after   16 cycles

      1  C    Isotropic =    69.5581   Anisotropy =   162.6153

      2  C    Isotropic =    70.1940   Anisotropy =   178.1464

      3  C    Isotropic =    71.1251   Anisotropy =   176.2231

      4  C    Isotropic =    52.9152   Anisotropy =   185.2892

      5  C    Isotropic =    72.2583   Anisotropy =   178.5695

      6  C    Isotropic =    71.4500   Anisotropy =   176.1447

      7  C    Isotropic =   118.9217   Anisotropy =    29.9100

      8  C    Isotropic =   144.7836   Anisotropy =    27.1811

      9  C    Isotropic =    19.2662   Anisotropy =   104.2312

     10  O    Isotropic =   124.2267   Anisotropy =   145.0277

     11  C    Isotropic =   138.2641   Anisotropy =    65.4200

     12  O    Isotropic =   297.7794   Anisotropy =    46.8050

     13  C    Isotropic =   180.2441   Anisotropy =    27.0087

     14  O    Isotropic =   -30.0973   Anisotropy =   562.8287

     15  C    Isotropic =   181.7592   Anisotropy =    23.6544

     16  H    Isotropic =    24.0303   Anisotropy =     7.1913

     17  H    Isotropic =    23.6599   Anisotropy =     4.9109

     18  H    Isotropic =    23.9017   Anisotropy =     4.8300

     19  H    Isotropic =    23.4683   Anisotropy =     9.3734

     20  H    Isotropic =    23.8660   Anisotropy =     4.0363

     21  H    Isotropic =    26.7485   Anisotropy =     6.2095

     22  H    Isotropic =    28.6692   Anisotropy =     3.8456

     23  H    Isotropic =    28.1135   Anisotropy =     9.2113

     24  H    Isotropic =    27.1860   Anisotropy =     7.0126

     25  H    Isotropic =    28.9567   Anisotropy =    19.0571

     26  H    Isotropic =    30.0277   Anisotropy =     9.0933

     27  H    Isotropic =    30.4538   Anisotropy =     9.7092

     28  H    Isotropic =    30.4853   Anisotropy =     8.5189

     29  H    Isotropic =    31.3576   Anisotropy =     6.4970

     30  H    Isotropic =    30.9500   Anisotropy =    11.7589

     31  H    Isotropic =    30.8093   Anisotropy =     6.0661

 The electronic state is 1-A.
 Alpha  occ. eigenvalues --  -19.32924 -19.28310 -19.27631 -10.44058 -10.36064
 Alpha  occ. eigenvalues --  -10.34988 -10.31615 -10.31443 -10.30596 -10.30560
 Alpha  occ. eigenvalues --  -10.30506 -10.30495 -10.30400 -10.29270 -10.28582
 Alpha  occ. eigenvalues --   -1.21033  -1.13112  -1.12577  -0.96148  -0.91353
 Alpha  occ. eigenvalues --   -0.86707  -0.85318  -0.84601  -0.77975  -0.76246
 Alpha  occ. eigenvalues --   -0.70706  -0.70181  -0.67445  -0.64419  -0.62005
 Alpha  occ. eigenvalues --   -0.60556  -0.59229  -0.57881  -0.55760  -0.54536
 Alpha  occ. eigenvalues --   -0.53642  -0.53136  -0.51678  -0.51526  -0.50210
 Alpha  occ. eigenvalues --   -0.49096  -0.47415  -0.46563  -0.46207  -0.45128
 Alpha  occ. eigenvalues --   -0.44811  -0.43984  -0.43867  -0.42283  -0.41764
 Alpha  occ. eigenvalues --   -0.40570  -0.38868  -0.37301  -0.35960  -0.33129
 Alpha  occ. eigenvalues --   -0.32619
 Alpha virt. eigenvalues --    0.04964   0.05484   0.06258   0.07277   0.07474
 Alpha virt. eigenvalues --    0.08188   0.08593   0.09547   0.09885   0.10194
 Alpha virt. eigenvalues --    0.10827   0.11030   0.11831   0.12545   0.12710

 Mulliken atomic charges:
              1
     1  C   -0.210502
     2  C   -0.152533
     3  C   -0.203013
     4  C   -0.124723
     5  C    0.094308
     6  C   -0.184602
     7  C   -0.092272
     8  C    0.254097
     9  C   -0.194904
    10  O   -0.206504
    11  C   -0.004335
    12  O   -0.564625
    13  C   -0.593169
    14  O   -0.438593
    15  C   -0.492632
    16  H    0.173228
    17  H    0.184388
    18  H    0.180371
    19  H    0.181284
    20  H    0.181402
    21  H    0.170438
    22  H    0.199221
    23  H    0.174257
    24  H    0.179454
    25  H    0.404662
    26  H    0.186480
    27  H    0.181692
    28  H    0.184528
    29  H    0.175975
    30  H    0.176830
    31  H    0.179793
 Sum of Mulliken atomic charges =   0.00000

 Dipole moment (field-independent basis, Debye):
    X=             -1.2533    Y=             -0.7616    Z=             -0.8322  Tot=              1.6863
 Quadrupole moment (field-independent basis, Debye-Ang):
   XX=            -88.5856   YY=            -78.1904   ZZ=            -89.8211
   XY=             -5.8858   XZ=              2.3738   YZ=              2.7252

 Normal termination of Gaussian 09 at Tue May 17 16:35:18 2022.
