 Gaussian 09, Revision C.01,
 Gaussian 09:  EM64L-G09RevC.01 23-Sep-2011

 ----------------------------------------------------------------
 # wb97xd/6-31+g** scrf=(pcm,solvent=chloroform,smd,dovacuum) nmr
 ----------------------------------------------------------------

 99/9=1/99;
 -------
 comment
 -------
 Charge =  0 Multiplicity = 1

                         Standard orientation:
 ---------------------------------------------------------------------
 Center     Atomic      Atomic             Coordinates (Angstroms)
 Number     Number       Type             X           Y           Z
 ---------------------------------------------------------------------
      1          6           0       -2.112657   -0.319247    1.055261
      2          6           0       -2.113953    1.334498   -1.190208
      3          6           0       -2.926379    0.814888    1.020264
      4          6           0       -1.287929   -0.641644   -0.032979
      5          6           0       -1.300586    0.200970   -1.157259
      6          6           0       -2.926550    1.640896   -0.101561
      7          6           0       -0.398322   -1.869491    0.021496
      8          6           0        1.053075   -1.644664    0.478567
      9          6           0        1.722877   -0.523591   -0.296037
     10          8           0        1.663767    0.660995    0.374112
     11          6           0        2.215478    1.775690   -0.335503
     12          8           0       -0.410763   -2.550130   -1.236958
     13          6           0        1.158343   -1.445604    1.993638
     14          8           0        2.232917   -0.663061   -1.401259
     15          6           0        1.974174    3.024094    0.490103
     16          1           0       -2.126866   -0.948242    1.942992
     17          1           0       -2.110514    1.978985   -2.065575
     18          1           0       -3.559918    1.055200    1.870365
     19          1           0       -0.666002   -0.017907   -2.015785
     20          1           0       -3.559267    2.524251   -0.126887
     21          1           0       -0.862680   -2.585471    0.712185
     22          1           0        1.638584   -2.545332    0.245739
     23          1           0        1.725793    1.879155   -1.310379
     24          1           0        3.291296    1.623979   -0.475888
     25          1           0       -1.299408   -2.441825   -1.618455
     26          1           0        0.781717   -2.325770    2.525409
     27          1           0        2.201915   -1.295411    2.291986
     28          1           0        0.589899   -0.576000    2.338743
     29          1           0        0.902178    3.173757    0.656863
     30          1           0        2.380824    3.907486   -0.009926
     31          1           0        2.439665    2.929937    1.476774
 ---------------------------------------------------------------------

 SCF Done:  E(RwB97XD) =  -692.443719659     A.U. after   16 cycles

      1  C    Isotropic =    69.8492   Anisotropy =   165.2483

      2  C    Isotropic =    69.3954   Anisotropy =   178.3583

      3  C    Isotropic =    70.5858   Anisotropy =   173.9353

      4  C    Isotropic =    54.1803   Anisotropy =   182.2092

      5  C    Isotropic =    72.6594   Anisotropy =   182.3476

      6  C    Isotropic =    71.0147   Anisotropy =   178.0845

      7  C    Isotropic =   119.0641   Anisotropy =    37.9993

      8  C    Isotropic =   149.7969   Anisotropy =    17.3777

      9  C    Isotropic =    21.2838   Anisotropy =   101.7566

     10  O    Isotropic =   127.5595   Anisotropy =   162.6554

     11  C    Isotropic =   137.2751   Anisotropy =    57.3856

     12  O    Isotropic =   276.4366   Anisotropy =    92.2407

     13  C    Isotropic =   180.8325   Anisotropy =    20.5336

     14  O    Isotropic =   -66.1143   Anisotropy =   554.6410

     15  C    Isotropic =   183.1741   Anisotropy =    22.3457

     16  H    Isotropic =    23.8541   Anisotropy =     7.7461

     17  H    Isotropic =    23.6929   Anisotropy =     4.8629

     18  H    Isotropic =    23.7797   Anisotropy =     4.5285

     19  H    Isotropic =    23.5820   Anisotropy =     8.2393

     20  H    Isotropic =    23.7451   Anisotropy =     3.9119

     21  H    Isotropic =    26.5319   Anisotropy =     5.6396

     22  H    Isotropic =    28.3502   Anisotropy =     6.0985

     23  H    Isotropic =    27.8384   Anisotropy =     4.9716

     24  H    Isotropic =    27.8032   Anisotropy =     8.3100

     25  H    Isotropic =    29.9002   Anisotropy =    15.0421

     26  H    Isotropic =    30.6391   Anisotropy =    10.4304

     27  H    Isotropic =    30.5221   Anisotropy =    10.3377

     28  H    Isotropic =    30.4245   Anisotropy =     5.1912

     29  H    Isotropic =    31.2123   Anisotropy =     7.3600

     30  H    Isotropic =    30.7428   Anisotropy =    11.3636

     31  H    Isotropic =    30.7561   Anisotropy =     8.8536

 The electronic state is 1-A.
 Alpha  occ. eigenvalues --  -19.32530 -19.28004 -19.27188 -10.43650 -10.36331
 Alpha  occ. eigenvalues --  -10.34861 -10.32014 -10.31837 -10.30987 -10.30917
 Alpha  occ. eigenvalues --  -10.30865 -10.30840 -10.30727 -10.28992 -10.28697
 Alpha  occ. eigenvalues --   -1.20783  -1.12943  -1.11993  -0.96430  -0.91461
 Alpha  occ. eigenvalues --   -0.86763  -0.85256  -0.84956  -0.77617  -0.75441
 Alpha  occ. eigenvalues --   -0.71510  -0.70264  -0.68072  -0.65398  -0.61978
 Alpha  occ. eigenvalues --   -0.59164  -0.58669  -0.57506  -0.56814  -0.55158
 Alpha  occ. eigenvalues --   -0.54583  -0.53199  -0.51080  -0.50376  -0.49526
 Alpha  occ. eigenvalues --   -0.48545  -0.47243  -0.46766  -0.46438  -0.45502
 Alpha  occ. eigenvalues --   -0.45039  -0.43904  -0.43551  -0.42789  -0.42427
 Alpha  occ. eigenvalues --   -0.40294  -0.38746  -0.37361  -0.35395  -0.33504
 Alpha  occ. eigenvalues --   -0.32626
 Alpha virt. eigenvalues --    0.04608   0.04948   0.06735   0.07097   0.07892
 Alpha virt. eigenvalues --    0.08111   0.08370   0.09370   0.09902   0.09954
 Alpha virt. eigenvalues --    0.10522   0.11052   0.12133   0.12374   0.12689

 Mulliken atomic charges:
              1
     1  C   -0.112343
     2  C   -0.244701
     3  C   -0.244071
     4  C    0.051246
     5  C   -0.219216
     6  C   -0.213580
     7  C    0.057078
     8  C    0.130188
     9  C    0.031167
    10  O   -0.220015
    11  C    0.123102
    12  O   -0.514814
    13  C   -0.612838
    14  O   -0.437339
    15  C   -0.637917
    16  H    0.179598
    17  H    0.183769
    18  H    0.185670
    19  H    0.187030
    20  H    0.183781
    21  H    0.149724
    22  H    0.197526
    23  H    0.171668
    24  H    0.174652
    25  H    0.386132
    26  H    0.172214
    27  H    0.176745
    28  H    0.184379
    29  H    0.177172
    30  H    0.179280
    31  H    0.174714
 Sum of Mulliken atomic charges =   0.00000

 Dipole moment (field-independent basis, Debye):
    X=             -2.4373    Y=              2.3977    Z=              3.0335  Tot=              4.5708
 Quadrupole moment (field-independent basis, Debye-Ang):
   XX=            -87.1478   YY=            -85.3901   ZZ=            -90.0274
   XY=              4.3224   XZ=              5.6454   YZ=             -9.2927

 Normal termination of Gaussian 09 at Tue May 17 20:55:19 2022.
