 Gaussian 09, Revision C.01,
 Gaussian 09:  EM64L-G09RevC.01 23-Sep-2011

 ----------------------------------------------------------------
 # wb97xd/6-31+g** scrf=(pcm,solvent=chloroform,smd,dovacuum) nmr
 ----------------------------------------------------------------

 99/9=1/99;
 -------
 comment
 -------
 Charge =  0 Multiplicity = 1

                         Standard orientation:
 ---------------------------------------------------------------------
 Center     Atomic      Atomic             Coordinates (Angstroms)
 Number     Number       Type             X           Y           Z
 ---------------------------------------------------------------------
      1          6           0       -1.984551    1.462460    0.201670
      2          6           0       -4.010451   -0.375843   -0.335655
      3          6           0       -3.255592    1.908652   -0.164981
      4          6           0       -1.711775    0.089584    0.310276
      5          6           0       -2.740314   -0.823842    0.031097
      6          6           0       -4.267924    0.989718   -0.432151
      7          6           0       -0.316552   -0.370892    0.698126
      8          6           0        0.579868   -0.616234   -0.527742
      9          6           0        2.031812   -0.470668   -0.111256
     10          8           0        2.297271    0.836676    0.188598
     11          6           0        3.647328    1.124543    0.583061
     12          8           0       -0.395948   -1.533347    1.524657
     13          6           0        0.362662   -1.970687   -1.205673
     14          8           0        2.860484   -1.369920   -0.087230
     15          6           0        4.502555    1.396874   -0.639981
     16          1           0       -1.206309    2.196625    0.401550
     17          1           0       -4.798134   -1.093933   -0.549419
     18          1           0       -3.455553    2.974259   -0.244259
     19          1           0       -2.556048   -1.895124    0.092860
     20          1           0       -5.256900    1.337569   -0.719073
     21          1           0        0.115527    0.405747    1.341235
     22          1           0        0.407751    0.159055   -1.287456
     23          1           0        4.065419    0.317178    1.195104
     24          1           0        3.611494    2.019164    1.213336
     25          1           0       -1.129407   -1.389975    2.148508
     26          1           0       -0.656315   -2.064154   -1.591576
     27          1           0        1.046284   -2.089117   -2.054246
     28          1           0        0.550538   -2.805340   -0.521849
     29          1           0        4.553782    0.516348   -1.288114
     30          1           0        5.519113    1.675266   -0.348182
     31          1           0        4.071891    2.207193   -1.237358
 ---------------------------------------------------------------------

 SCF Done:  E(RwB97XD) =  -692.441392294     A.U. after   16 cycles

      1  C    Isotropic =    71.7162   Anisotropy =   163.8652

      2  C    Isotropic =    70.0357   Anisotropy =   175.5719

      3  C    Isotropic =    69.9694   Anisotropy =   174.2784

      4  C    Isotropic =    49.2174   Anisotropy =   183.7879

      5  C    Isotropic =    73.9953   Anisotropy =   178.9315

      6  C    Isotropic =    72.2169   Anisotropy =   176.9932

      7  C    Isotropic =   121.8437   Anisotropy =    36.6850

      8  C    Isotropic =   149.1306   Anisotropy =    21.7808

      9  C    Isotropic =    18.1125   Anisotropy =    93.4571

     10  O    Isotropic =   133.8204   Anisotropy =   156.8243

     11  C    Isotropic =   137.5846   Anisotropy =    65.6977

     12  O    Isotropic =   291.1838   Anisotropy =    78.8714

     13  C    Isotropic =   188.4371   Anisotropy =    10.3197

     14  O    Isotropic =   -47.2736   Anisotropy =   579.7641

     15  C    Isotropic =   181.5081   Anisotropy =    26.2508

     16  H    Isotropic =    23.7448   Anisotropy =     8.1938

     17  H    Isotropic =    23.7340   Anisotropy =     5.2031

     18  H    Isotropic =    23.8012   Anisotropy =     5.0010

     19  H    Isotropic =    23.3477   Anisotropy =     9.8778

     20  H    Isotropic =    23.7482   Anisotropy =     4.3289

     21  H    Isotropic =    26.1353   Anisotropy =     6.3348

     22  H    Isotropic =    28.8617   Anisotropy =     4.8736

     23  H    Isotropic =    26.7859   Anisotropy =     5.9690

     24  H    Isotropic =    27.6574   Anisotropy =     7.5939

     25  H    Isotropic =    30.1031   Anisotropy =    16.2215

     26  H    Isotropic =    30.5768   Anisotropy =     9.4392

     27  H    Isotropic =    30.7053   Anisotropy =    10.4735

     28  H    Isotropic =    29.8168   Anisotropy =     7.8239

     29  H    Isotropic =    30.2741   Anisotropy =     6.4267

     30  H    Isotropic =    30.5675   Anisotropy =    11.5243

     31  H    Isotropic =    30.4586   Anisotropy =     8.3430

 The electronic state is 1-A.
 Alpha  occ. eigenvalues --  -19.32546 -19.28284 -19.27516 -10.43819 -10.36254
 Alpha  occ. eigenvalues --  -10.34946 -10.32112 -10.31658 -10.30850 -10.30810
 Alpha  occ. eigenvalues --  -10.30783 -10.30752 -10.30608 -10.28604 -10.28446
 Alpha  occ. eigenvalues --   -1.20720  -1.13201  -1.12313  -0.96321  -0.91325
 Alpha  occ. eigenvalues --   -0.86601  -0.85160  -0.84833  -0.78094  -0.75995
 Alpha  occ. eigenvalues --   -0.70762  -0.70119  -0.67837  -0.64309  -0.62469
 Alpha  occ. eigenvalues --   -0.60017  -0.59022  -0.57603  -0.55904  -0.55227
 Alpha  occ. eigenvalues --   -0.53291  -0.53195  -0.52021  -0.50913  -0.50365
 Alpha  occ. eigenvalues --   -0.48556  -0.47357  -0.46625  -0.46121  -0.45668
 Alpha  occ. eigenvalues --   -0.44613  -0.43850  -0.43117  -0.42548  -0.41895
 Alpha  occ. eigenvalues --   -0.40738  -0.38782  -0.37566  -0.35773  -0.33422
 Alpha  occ. eigenvalues --   -0.32453
 Alpha virt. eigenvalues --    0.04683   0.05185   0.06238   0.07228   0.07974
 Alpha virt. eigenvalues --    0.08273   0.08631   0.09267   0.09922   0.09999
 Alpha virt. eigenvalues --    0.10429   0.11447   0.11706   0.12165   0.12691

 Mulliken atomic charges:
              1
     1  C    0.034018
     2  C   -0.353328
     3  C   -0.324679
     4  C   -0.182846
     5  C   -0.119391
     6  C   -0.141273
     7  C    0.257510
     8  C    0.251331
     9  C   -0.055967
    10  O   -0.257713
    11  C   -0.039121
    12  O   -0.561353
    13  C   -0.624545
    14  O   -0.485079
    15  C   -0.510445
    16  H    0.179126
    17  H    0.185307
    18  H    0.185060
    19  H    0.185762
    20  H    0.182831
    21  H    0.166263
    22  H    0.217604
    23  H    0.179742
    24  H    0.172341
    25  H    0.398840
    26  H    0.170342
    27  H    0.172702
    28  H    0.187686
    29  H    0.179363
    30  H    0.177117
    31  H    0.172795
 Sum of Mulliken atomic charges =   0.00000

 Dipole moment (field-independent basis, Debye):
    X=             -2.0385    Y=              3.7051    Z=             -0.0096  Tot=              4.2289
 Quadrupole moment (field-independent basis, Debye-Ang):
   XX=            -81.1535   YY=            -90.8401   ZZ=            -88.4483
   XY=             11.6314   XZ=              1.2023   YZ=              2.1825

 Normal termination of Gaussian 09 at Tue May 17 18:14:28 2022.
