 Gaussian 09, Revision C.01,
 Gaussian 09:  EM64L-G09RevC.01 23-Sep-2011

 ----------------------------------------------------------------
 # wb97xd/6-31+g** scrf=(pcm,solvent=chloroform,smd,dovacuum) nmr
 ----------------------------------------------------------------

 99/9=1/99;
 -------
 comment
 -------
 Charge =  0 Multiplicity = 1

                         Standard orientation:
 ---------------------------------------------------------------------
 Center     Atomic      Atomic             Coordinates (Angstroms)
 Number     Number       Type             X           Y           Z
 ---------------------------------------------------------------------
      1          6           0       -2.631998   -0.594515   -1.117617
      2          6           0       -3.822215    0.348764    1.221392
      3          6           0       -3.952479   -0.934941   -0.816830
      4          6           0       -1.888247    0.220354   -0.249751
      5          6           0       -2.501981    0.689236    0.922513
      6          6           0       -4.546207   -0.464745    0.352690
      7          6           0       -0.446044    0.561346   -0.570718
      8          6           0        0.563988   -0.152963    0.349938
      9          6           0        1.968754    0.255626   -0.048322
     10          8           0        2.869835   -0.173452    0.879858
     11          6           0        4.242435    0.163176    0.628940
     12          8           0       -0.311500    1.981243   -0.433542
     13          6           0        0.450867   -1.676685    0.276846
     14          8           0        2.248639    0.897357   -1.053561
     15          6           0        4.882921   -0.886293   -0.259802
     16          1           0       -2.187965   -0.970471   -2.036561
     17          1           0       -4.286139    0.724779    2.129309
     18          1           0       -4.519250   -1.564836   -1.497440
     19          1           0       -1.951678    1.337194    1.601897
     20          1           0       -5.575121   -0.726668    0.584109
     21          1           0       -0.247065    0.324496   -1.624143
     22          1           0        0.417693    0.188357    1.383166
     23          1           0        4.749298    0.183367    1.599235
     24          1           0        4.333911    1.166189    0.196763
     25          1           0        0.492297    2.225927   -0.932577
     26          1           0        1.222242   -2.163129    0.883796
     27          1           0       -0.517497   -2.025866    0.647855
     28          1           0        0.574690   -2.032094   -0.752267
     29          1           0        4.782913   -1.881035    0.186802
     30          1           0        5.944702   -0.671747   -0.410137
     31          1           0        4.392418   -0.925814   -1.237527
 ---------------------------------------------------------------------

 SCF Done:  E(RwB97XD) =  -692.447253325     A.U. after   15 cycles

      1  C    Isotropic =    69.0892   Anisotropy =   160.9345

      2  C    Isotropic =    69.6907   Anisotropy =   176.3047

      3  C    Isotropic =    70.8339   Anisotropy =   173.8013

      4  C    Isotropic =    54.0359   Anisotropy =   185.6682

      5  C    Isotropic =    72.6885   Anisotropy =   178.6817

      6  C    Isotropic =    71.7674   Anisotropy =   176.3215

      7  C    Isotropic =   118.7629   Anisotropy =    32.3276

      8  C    Isotropic =   145.4412   Anisotropy =    36.5505

      9  C    Isotropic =    16.9237   Anisotropy =   102.7101

     10  O    Isotropic =   130.4443   Anisotropy =   157.0509

     11  C    Isotropic =   137.3911   Anisotropy =    65.6729

     12  O    Isotropic =   283.7716   Anisotropy =    42.8301

     13  C    Isotropic =   181.6099   Anisotropy =    21.3148

     14  O    Isotropic =   -30.8862   Anisotropy =   546.1879

     15  C    Isotropic =   181.4833   Anisotropy =    26.0437

     16  H    Isotropic =    23.8571   Anisotropy =     7.9405

     17  H    Isotropic =    23.6968   Anisotropy =     5.1230

     18  H    Isotropic =    23.8379   Anisotropy =     4.8139

     19  H    Isotropic =    23.4429   Anisotropy =     9.8036

     20  H    Isotropic =    23.7782   Anisotropy =     4.1358

     21  H    Isotropic =    26.6267   Anisotropy =     4.6295

     22  H    Isotropic =    28.7337   Anisotropy =     4.0369

     23  H    Isotropic =    27.7226   Anisotropy =     8.2674

     24  H    Isotropic =    26.7916   Anisotropy =     6.0355

     25  H    Isotropic =    28.0743   Anisotropy =    18.0433

     26  H    Isotropic =    30.4375   Anisotropy =     9.7782

     27  H    Isotropic =    31.2032   Anisotropy =     6.7155

     28  H    Isotropic =    30.8047   Anisotropy =     8.1262

     29  H    Isotropic =    30.4231   Anisotropy =     8.0739

     30  H    Isotropic =    30.5555   Anisotropy =    11.5237

     31  H    Isotropic =    30.3185   Anisotropy =     6.1409

 The electronic state is 1-A.
 Alpha  occ. eigenvalues --  -19.33073 -19.28285 -19.27584 -10.44535 -10.35670
 Alpha  occ. eigenvalues --  -10.35230 -10.31953 -10.31411 -10.30607 -10.30560
 Alpha  occ. eigenvalues --  -10.30529 -10.30478 -10.30411 -10.29341 -10.28800
 Alpha  occ. eigenvalues --   -1.21378  -1.13492  -1.11979  -0.96094  -0.91438
 Alpha  occ. eigenvalues --   -0.86950  -0.84986  -0.84598  -0.77304  -0.76446
 Alpha  occ. eigenvalues --   -0.71925  -0.70116  -0.67061  -0.64728  -0.61664
 Alpha  occ. eigenvalues --   -0.59758  -0.59488  -0.58473  -0.56385  -0.54473
 Alpha  occ. eigenvalues --   -0.53475  -0.52786  -0.51359  -0.50884  -0.50160
 Alpha  occ. eigenvalues --   -0.49031  -0.48913  -0.46793  -0.46426  -0.45232
 Alpha  occ. eigenvalues --   -0.45055  -0.44094  -0.43389  -0.42213  -0.41946
 Alpha  occ. eigenvalues --   -0.41086  -0.39047  -0.37159  -0.35785  -0.33173
 Alpha  occ. eigenvalues --   -0.32629
 Alpha virt. eigenvalues --    0.05125   0.05459   0.06211   0.07156   0.07873
 Alpha virt. eigenvalues --    0.08146   0.08307   0.09453   0.09655   0.10666
 Alpha virt. eigenvalues --    0.10944   0.11159   0.11372   0.11735   0.12998

 Mulliken atomic charges:
              1
     1  C   -0.353845
     2  C   -0.187700
     3  C   -0.281994
     4  C    0.198324
     5  C    0.122351
     6  C   -0.148983
     7  C   -0.233938
     8  C   -0.151900
     9  C    0.334514
    10  O   -0.271318
    11  C   -0.038511
    12  O   -0.557056
    13  C   -0.548076
    14  O   -0.542237
    15  C   -0.470536
    16  H    0.176171
    17  H    0.184310
    18  H    0.183748
    19  H    0.180407
    20  H    0.181750
    21  H    0.163431
    22  H    0.214108
    23  H    0.175461
    24  H    0.180577
    25  H    0.400721
    26  H    0.184220
    27  H    0.189905
    28  H    0.184385
    29  H    0.174181
    30  H    0.178223
    31  H    0.179309
 Sum of Mulliken atomic charges =   0.00000

 Dipole moment (field-independent basis, Debye):
    X=              1.9721    Y=             -2.8347    Z=              1.0227  Tot=              3.6014
 Quadrupole moment (field-independent basis, Debye-Ang):
   XX=            -73.3767   YY=            -94.2522   ZZ=            -87.7759
   XY=              3.7485   XZ=              2.1638   YZ=              5.0184

 Normal termination of Gaussian 09 at Tue May 17 16:59:47 2022.
