 Gaussian 09, Revision C.01,
 Gaussian 09:  EM64L-G09RevC.01 23-Sep-2011

 ----------------------------------------------------------------
 # wb97xd/6-31+g** scrf=(pcm,solvent=chloroform,smd,dovacuum) nmr
 ----------------------------------------------------------------

 99/9=1/99;
 -------
 comment
 -------
 Charge =  0 Multiplicity = 1

                         Standard orientation:
 ---------------------------------------------------------------------
 Center     Atomic      Atomic             Coordinates (Angstroms)
 Number     Number       Type             X           Y           Z
 ---------------------------------------------------------------------
      1          6           0        2.386697    1.187579   -0.637169
      2          6           0        3.902384   -0.934008    0.352149
      3          6           0        3.761675    1.338257   -0.445167
      4          6           0        1.751124   -0.026885   -0.334062
      5          6           0        2.528061   -1.085998    0.161479
      6          6           0        4.518297    0.278432    0.050371
      7          6           0        0.252636   -0.172772   -0.520512
      8          6           0       -0.518445   -0.225750    0.812161
      9          6           0       -2.012533   -0.412715    0.620637
     10          8           0       -2.427788   -0.055067   -0.626137
     11          6           0       -3.840031   -0.156904   -0.871202
     12          8           0        0.041444   -1.383238   -1.255974
     13          6           0       -0.317789    1.030377    1.661657
     14          8           0       -2.758926   -0.794692    1.514533
     15          6           0       -4.537512    1.119294   -0.439707
     16          1           0        1.815231    2.027701   -1.024967
     17          1           0        4.491471   -1.764710    0.731559
     18          1           0        4.243244    2.282815   -0.684270
     19          1           0        2.061211   -2.042278    0.389726
     20          1           0        5.588695    0.395310    0.196897
     21          1           0       -0.104983    0.651818   -1.150492
     22          1           0       -0.185716   -1.107471    1.376453
     23          1           0       -4.268383   -1.037164   -0.378464
     24          1           0       -3.966477   -0.299042   -1.949458
     25          1           0       -0.818883   -1.290547   -1.702399
     26          1           0       -0.937183    0.998312    2.565121
     27          1           0        0.722226    1.135705    1.984998
     28          1           0       -0.599297    1.931368    1.105133
     29          1           0       -4.424066    1.285036    0.636265
     30          1           0       -5.604463    1.077142   -0.676023
     31          1           0       -4.097840    1.986523   -0.943262
 ---------------------------------------------------------------------

 SCF Done:  E(RwB97XD) =  -692.445884910     A.U. after   15 cycles

      1  C    Isotropic =    69.7977   Anisotropy =   160.7131

      2  C    Isotropic =    69.6346   Anisotropy =   176.3989

      3  C    Isotropic =    70.5219   Anisotropy =   173.5252

      4  C    Isotropic =    53.8149   Anisotropy =   183.7150

      5  C    Isotropic =    73.4838   Anisotropy =   181.4858

      6  C    Isotropic =    72.4053   Anisotropy =   177.7812

      7  C    Isotropic =   120.6708   Anisotropy =    33.2408

      8  C    Isotropic =   143.2792   Anisotropy =    32.9003

      9  C    Isotropic =    19.0489   Anisotropy =   101.1899

     10  O    Isotropic =   135.3779   Anisotropy =   171.7539

     11  C    Isotropic =   137.4676   Anisotropy =    66.7239

     12  O    Isotropic =   284.8991   Anisotropy =    51.4718

     13  C    Isotropic =   180.5907   Anisotropy =    23.7377

     14  O    Isotropic =   -44.6483   Anisotropy =   540.7675

     15  C    Isotropic =   181.4418   Anisotropy =    26.0215

     16  H    Isotropic =    23.8550   Anisotropy =     8.0513

     17  H    Isotropic =    23.6920   Anisotropy =     5.0476

     18  H    Isotropic =    23.8072   Anisotropy =     4.8510

     19  H    Isotropic =    23.4556   Anisotropy =     9.9538

     20  H    Isotropic =    23.6787   Anisotropy =     4.2384

     21  H    Isotropic =    26.5739   Anisotropy =     4.4039

     22  H    Isotropic =    28.6883   Anisotropy =     4.6063

     23  H    Isotropic =    26.7475   Anisotropy =     6.5416

     24  H    Isotropic =    27.6286   Anisotropy =     7.7224

     25  H    Isotropic =    28.6141   Anisotropy =    18.1399

     26  H    Isotropic =    30.5606   Anisotropy =     9.9836

     27  H    Isotropic =    31.1049   Anisotropy =     6.6650

     28  H    Isotropic =    30.7697   Anisotropy =     7.7314

     29  H    Isotropic =    30.2718   Anisotropy =     6.2246

     30  H    Isotropic =    30.5406   Anisotropy =    11.6568

     31  H    Isotropic =    30.4206   Anisotropy =     8.2283

 The electronic state is 1-A.
 Alpha  occ. eigenvalues --  -19.33483 -19.27963 -19.27652 -10.44334 -10.35840
 Alpha  occ. eigenvalues --  -10.35392 -10.31953 -10.31488 -10.30672 -10.30599
 Alpha  occ. eigenvalues --  -10.30578 -10.30526 -10.30452 -10.29355 -10.28876
 Alpha  occ. eigenvalues --   -1.21486  -1.12947  -1.12508  -0.96155  -0.91422
 Alpha  occ. eigenvalues --   -0.86974  -0.85183  -0.84647  -0.77602  -0.76237
 Alpha  occ. eigenvalues --   -0.72025  -0.70131  -0.67255  -0.64999  -0.61727
 Alpha  occ. eigenvalues --   -0.60197  -0.59952  -0.57964  -0.56164  -0.54377
 Alpha  occ. eigenvalues --   -0.53822  -0.52617  -0.51409  -0.50936  -0.50254
 Alpha  occ. eigenvalues --   -0.49016  -0.48689  -0.47235  -0.46492  -0.45512
 Alpha  occ. eigenvalues --   -0.44261  -0.43963  -0.43148  -0.42423  -0.42224
 Alpha  occ. eigenvalues --   -0.41345  -0.39090  -0.37225  -0.35823  -0.33218
 Alpha  occ. eigenvalues --   -0.32611
 Alpha virt. eigenvalues --    0.05116   0.05401   0.06411   0.06807   0.07760
 Alpha virt. eigenvalues --    0.08084   0.08479   0.09443   0.09671   0.10491
 Alpha virt. eigenvalues --    0.10755   0.11262   0.11368   0.12071   0.12830

 Mulliken atomic charges:
              1
     1  C   -0.370914
     2  C   -0.229232
     3  C   -0.299399
     4  C    0.233482
     5  C    0.228486
     6  C   -0.139853
     7  C   -0.324042
     8  C    0.008243
     9  C    0.272443
    10  O   -0.312249
    11  C   -0.079771
    12  O   -0.554348
    13  C   -0.581079
    14  O   -0.497175
    15  C   -0.487951
    16  H    0.175560
    17  H    0.184968
    18  H    0.183745
    19  H    0.181642
    20  H    0.181823
    21  H    0.163493
    22  H    0.210437
    23  H    0.183747
    24  H    0.175047
    25  H    0.403675
    26  H    0.185287
    27  H    0.189393
    28  H    0.181751
    29  H    0.180308
    30  H    0.179003
    31  H    0.173480
 Sum of Mulliken atomic charges =   0.00000

 Dipole moment (field-independent basis, Debye):
    X=             -0.8939    Y=              2.7147    Z=             -1.6686  Tot=              3.3095
 Quadrupole moment (field-independent basis, Debye-Ang):
   XX=            -78.1206   YY=            -88.4024   ZZ=            -94.6616
   XY=             -1.1951   XZ=             14.2983   YZ=             -1.4310

 Normal termination of Gaussian 09 at Tue May 17 17:02:52 2022.
