 Gaussian 09, Revision C.01,
 Gaussian 09:  EM64L-G09RevC.01 23-Sep-2011

 ----------------------------------------------------------------
 # wb97xd/6-31+g** scrf=(pcm,solvent=chloroform,smd,dovacuum) nmr
 ----------------------------------------------------------------

 99/9=1/99;
 -------
 comment
 -------
 Charge =  0 Multiplicity = 1

                         Standard orientation:
 ---------------------------------------------------------------------
 Center     Atomic      Atomic             Coordinates (Angstroms)
 Number     Number       Type             X           Y           Z
 ---------------------------------------------------------------------
      1          6           0       -1.220437   -0.894333   -1.152394
      2          6           0       -3.001305   -1.223645    0.965248
      3          6           0       -1.830091   -2.131897   -0.936267
      4          6           0       -1.489011    0.196560   -0.308996
      5          6           0       -2.391633    0.013868    0.750052
      6          6           0       -2.718862   -2.296518    0.123322
      7          6           0       -0.796807    1.526505   -0.547038
      8          6           0        0.564674    1.680171    0.156102
      9          6           0        1.570097    0.752157   -0.496327
     10          8           0        2.151430   -0.098793    0.387601
     11          6           0        3.080624   -1.021709   -0.192768
     12          8           0       -1.662583    2.594107   -0.138130
     13          6           0        0.491815    1.566343    1.681443
     14          8           0        1.819029    0.780592   -1.697132
     15          6           0        3.603416   -1.921141    0.910000
     16          1           0       -0.534711   -0.787676   -1.991386
     17          1           0       -3.699137   -1.346723    1.789184
     18          1           0       -1.613409   -2.966271   -1.598165
     19          1           0       -2.627438    0.843315    1.414268
     20          1           0       -3.195453   -3.258677    0.290078
     21          1           0       -0.675432    1.645372   -1.631962
     22          1           0        0.935405    2.696231   -0.040944
     23          1           0        3.911374   -0.470940   -0.647650
     24          1           0        2.575853   -1.626218   -0.954749
     25          1           0       -1.355602    3.398082   -0.590068
     26          1           0        1.466473    1.792403    2.128875
     27          1           0       -0.232389    2.274266    2.097086
     28          1           0        0.213781    0.558954    2.007564
     29          1           0        4.092271   -1.329315    1.690937
     30          1           0        4.320310   -2.646416    0.515207
     31          1           0        2.780218   -2.461798    1.388762
 ---------------------------------------------------------------------

 SCF Done:  E(RwB97XD) =  -692.444938708     A.U. after   16 cycles

      1  C    Isotropic =    71.8379   Anisotropy =   165.5423

      2  C    Isotropic =    70.5116   Anisotropy =   174.9067

      3  C    Isotropic =    70.5760   Anisotropy =   174.4516

      4  C    Isotropic =    56.7876   Anisotropy =   177.5542

      5  C    Isotropic =    71.7438   Anisotropy =   184.3060

      6  C    Isotropic =    72.1859   Anisotropy =   176.8003

      7  C    Isotropic =   121.7498   Anisotropy =    37.0947

      8  C    Isotropic =   146.3693   Anisotropy =    31.8475

      9  C    Isotropic =    20.8881   Anisotropy =   100.0746

     10  O    Isotropic =   124.4568   Anisotropy =   146.4443

     11  C    Isotropic =   136.6020   Anisotropy =    58.8374

     12  O    Isotropic =   289.8653   Anisotropy =    91.6766

     13  C    Isotropic =   186.8623   Anisotropy =     9.0032

     14  O    Isotropic =   -48.0157   Anisotropy =   558.0528

     15  C    Isotropic =   182.9619   Anisotropy =    22.8216

     16  H    Isotropic =    24.1000   Anisotropy =     8.0093

     17  H    Isotropic =    23.7404   Anisotropy =     4.8865

     18  H    Isotropic =    23.9101   Anisotropy =     4.9843

     19  H    Isotropic =    23.4497   Anisotropy =     9.6499

     20  H    Isotropic =    23.7940   Anisotropy =     4.0363

     21  H    Isotropic =    25.9631   Anisotropy =     5.8827

     22  H    Isotropic =    28.6718   Anisotropy =     6.1304

     23  H    Isotropic =    27.5773   Anisotropy =     7.4355

     24  H    Isotropic =    27.7544   Anisotropy =     5.5390

     25  H    Isotropic =    29.6066   Anisotropy =    19.4869

     26  H    Isotropic =    30.6034   Anisotropy =    10.2982

     27  H    Isotropic =    30.1534   Anisotropy =     8.8413

     28  H    Isotropic =    30.8726   Anisotropy =     5.2385

     29  H    Isotropic =    30.5233   Anisotropy =     8.7354

     30  H    Isotropic =    30.5564   Anisotropy =    11.1947

     31  H    Isotropic =    30.7014   Anisotropy =     7.1077

 The electronic state is 1-A.
 Alpha  occ. eigenvalues --  -19.33011 -19.28314 -19.27475 -10.44086 -10.36239
 Alpha  occ. eigenvalues --  -10.35086 -10.31950 -10.31631 -10.30661 -10.30548
 Alpha  occ. eigenvalues --  -10.30525 -10.30459 -10.30392 -10.28826 -10.28508
 Alpha  occ. eigenvalues --   -1.21249  -1.13071  -1.12437  -0.96157  -0.91235
 Alpha  occ. eigenvalues --   -0.86987  -0.85068  -0.84586  -0.77769  -0.75348
 Alpha  occ. eigenvalues --   -0.71562  -0.69984  -0.67432  -0.65624  -0.60767
 Alpha  occ. eigenvalues --   -0.59974  -0.58990  -0.58045  -0.57114  -0.55857
 Alpha  occ. eigenvalues --   -0.54069  -0.52662  -0.50744  -0.50330  -0.49485
 Alpha  occ. eigenvalues --   -0.48813  -0.47773  -0.47274  -0.46092  -0.44974
 Alpha  occ. eigenvalues --   -0.44524  -0.43856  -0.43388  -0.43053  -0.42033
 Alpha  occ. eigenvalues --   -0.40229  -0.38800  -0.37404  -0.35914  -0.33114
 Alpha  occ. eigenvalues --   -0.32542
 Alpha virt. eigenvalues --    0.05059   0.05306   0.06531   0.06987   0.07789
 Alpha virt. eigenvalues --    0.08192   0.08407   0.09458   0.09975   0.10109
 Alpha virt. eigenvalues --    0.10707   0.11136   0.11689   0.12037   0.12550

 Mulliken atomic charges:
              1
     1  C   -0.007742
     2  C   -0.307610
     3  C   -0.297185
     4  C   -0.146600
     5  C    0.138764
     6  C   -0.187131
     7  C    0.030610
     8  C    0.135292
     9  C   -0.109610
    10  O   -0.230710
    11  C    0.145551
    12  O   -0.577099
    13  C   -0.620172
    14  O   -0.449850
    15  C   -0.619523
    16  H    0.174697
    17  H    0.184447
    18  H    0.183308
    19  H    0.183689
    20  H    0.181599
    21  H    0.170717
    22  H    0.202851
    23  H    0.176097
    24  H    0.175951
    25  H    0.401863
    26  H    0.172533
    27  H    0.178159
    28  H    0.183433
    29  H    0.175534
    30  H    0.180758
    31  H    0.177376
 Sum of Mulliken atomic charges =   0.00000

 Dipole moment (field-independent basis, Debye):
    X=              1.8196    Y=             -0.4706    Z=              1.1325  Tot=              2.1943
 Quadrupole moment (field-independent basis, Debye-Ang):
   XX=            -88.9048   YY=            -75.9766   ZZ=            -93.3056
   XY=              0.5711   XZ=              1.4350   YZ=              0.7767

 Normal termination of Gaussian 09 at Tue May 17 20:41:50 2022.
