 Gaussian 09, Revision C.01,
 Gaussian 09:  EM64L-G09RevC.01 23-Sep-2011

 ----------------------------------------------------------------
 # wb97xd/6-31+g** scrf=(pcm,solvent=chloroform,smd,dovacuum) nmr
 ----------------------------------------------------------------

 99/9=1/99;
 -------
 comment
 -------
 Charge =  0 Multiplicity = 1

                         Standard orientation:
 ---------------------------------------------------------------------
 Center     Atomic      Atomic             Coordinates (Angstroms)
 Number     Number       Type             X           Y           Z
 ---------------------------------------------------------------------
      1          6           0        2.652460    0.576659   -1.063799
      2          6           0        3.663932   -0.944345    1.044992
      3          6           0        4.022873    0.571694   -0.797631
      4          6           0        1.771268   -0.179162   -0.276590
      5          6           0        2.293680   -0.940697    0.781254
      6          6           0        4.527682   -0.187977    0.255863
      7          6           0        0.282896   -0.164884   -0.568795
      8          6           0       -0.562547    0.483235    0.536714
      9          6           0       -1.984629    0.587201    0.029694
     10          8           0       -2.839658   -0.060978    0.869714
     11          6           0       -4.222142   -0.047268    0.487455
     12          8           0       -0.139284   -1.524613   -0.740556
     13          6           0       -0.103297    1.887706    0.927050
     14          8           0       -2.315171    1.200467   -0.977979
     15          6           0       -4.510235   -1.183817   -0.475510
     16          1           0        2.278245    1.178798   -1.889480
     17          1           0        4.057221   -1.537949    1.866318
     18          1           0        4.697492    1.162174   -1.412548
     19          1           0        1.631003   -1.539472    1.403770
     20          1           0        5.594922   -0.190482    0.461872
     21          1           0        0.105975    0.333175   -1.530111
     22          1           0       -0.559141   -0.153659    1.430934
     23          1           0       -4.508843    0.921729    0.063089
     24          1           0       -4.808216   -0.183041    1.402307
     25          1           0        0.572309   -1.985181   -1.220303
     26          1           0       -0.817217    2.351988    1.616828
     27          1           0        0.870142    1.865653    1.426605
     28          1           0       -0.023503    2.540060    0.050214
     29          1           0       -3.936002   -1.070702   -1.400494
     30          1           0       -5.573975   -1.218804   -0.727021
     31          1           0       -4.219162   -2.143354   -0.035596
 ---------------------------------------------------------------------

 SCF Done:  E(RwB97XD) =  -692.445354168     A.U. after   16 cycles

      1  C    Isotropic =    69.2260   Anisotropy =   160.6905

      2  C    Isotropic =    68.9175   Anisotropy =   176.9503

      3  C    Isotropic =    70.1166   Anisotropy =   173.6265

      4  C    Isotropic =    52.2751   Anisotropy =   187.2012

      5  C    Isotropic =    74.1803   Anisotropy =   182.3352

      6  C    Isotropic =    71.2235   Anisotropy =   177.6882

      7  C    Isotropic =   116.6942   Anisotropy =    26.7425

      8  C    Isotropic =   147.8017   Anisotropy =    24.3526

      9  C    Isotropic =    16.8011   Anisotropy =   101.3881

     10  O    Isotropic =   123.8139   Anisotropy =   144.3830

     11  C    Isotropic =   137.5010   Anisotropy =    65.7596

     12  O    Isotropic =   265.7455   Anisotropy =    45.7609

     13  C    Isotropic =   180.7806   Anisotropy =    21.4455

     14  O    Isotropic =   -22.7237   Anisotropy =   552.7111

     15  C    Isotropic =   181.3085   Anisotropy =    25.4995

     16  H    Isotropic =    23.7042   Anisotropy =     7.8348

     17  H    Isotropic =    23.7276   Anisotropy =     5.0948

     18  H    Isotropic =    23.8196   Anisotropy =     4.7837

     19  H    Isotropic =    23.2996   Anisotropy =     9.8752

     20  H    Isotropic =    23.7206   Anisotropy =     4.2438

     21  H    Isotropic =    26.5936   Anisotropy =     4.4809

     22  H    Isotropic =    28.5034   Anisotropy =     4.3019

     23  H    Isotropic =    26.8379   Anisotropy =     6.2694

     24  H    Isotropic =    27.7768   Anisotropy =     8.2264

     25  H    Isotropic =    29.9254   Anisotropy =    14.7529

     26  H    Isotropic =    30.7564   Anisotropy =    10.3203

     27  H    Isotropic =    31.3915   Anisotropy =     6.7717

     28  H    Isotropic =    30.6573   Anisotropy =     7.9821

     29  H    Isotropic =    30.1872   Anisotropy =     5.8397

     30  H    Isotropic =    30.5839   Anisotropy =    11.5492

     31  H    Isotropic =    30.3531   Anisotropy =     8.0271

 The electronic state is 1-A.
 Alpha  occ. eigenvalues --  -19.32728 -19.28155 -19.27398 -10.43830 -10.35990
 Alpha  occ. eigenvalues --  -10.34835 -10.31868 -10.31606 -10.30890 -10.30889
 Alpha  occ. eigenvalues --  -10.30831 -10.30795 -10.30706 -10.29304 -10.28462
 Alpha  occ. eigenvalues --   -1.20788  -1.13025  -1.12295  -0.96358  -0.91452
 Alpha  occ. eigenvalues --   -0.86735  -0.85079  -0.84886  -0.77948  -0.76249
 Alpha  occ. eigenvalues --   -0.71339  -0.70276  -0.67487  -0.64149  -0.61787
 Alpha  occ. eigenvalues --   -0.61006  -0.58361  -0.57851  -0.55811  -0.54807
 Alpha  occ. eigenvalues --   -0.53601  -0.53062  -0.52761  -0.50675  -0.49960
 Alpha  occ. eigenvalues --   -0.49232  -0.47048  -0.46864  -0.46367  -0.45285
 Alpha  occ. eigenvalues --   -0.44735  -0.44383  -0.43795  -0.42492  -0.41651
 Alpha  occ. eigenvalues --   -0.40229  -0.38710  -0.36941  -0.36548  -0.33509
 Alpha  occ. eigenvalues --   -0.32617
 Alpha virt. eigenvalues --    0.04543   0.05170   0.06710   0.07530   0.07855
 Alpha virt. eigenvalues --    0.08249   0.08551   0.09283   0.10029   0.10105
 Alpha virt. eigenvalues --    0.10587   0.11130   0.11880   0.12118   0.12876

 Mulliken atomic charges:
              1
     1  C   -0.301905
     2  C   -0.253951
     3  C   -0.236938
     4  C    0.049095
     5  C    0.144636
     6  C   -0.144699
     7  C   -0.150903
     8  C    0.301609
     9  C   -0.161285
    10  O   -0.235720
    11  C   -0.078692
    12  O   -0.540098
    13  C   -0.573637
    14  O   -0.468588
    15  C   -0.475191
    16  H    0.180957
    17  H    0.186291
    18  H    0.185623
    19  H    0.183608
    20  H    0.183600
    21  H    0.163401
    22  H    0.200713
    23  H    0.178874
    24  H    0.173100
    25  H    0.402657
    26  H    0.179585
    27  H    0.185274
    28  H    0.189471
    29  H    0.181684
    30  H    0.176518
    31  H    0.174913
 Sum of Mulliken atomic charges =   0.00000

 Dipole moment (field-independent basis, Debye):
    X=              1.7982    Y=             -0.3637    Z=              1.3868  Tot=              2.2998
 Quadrupole moment (field-independent basis, Debye-Ang):
   XX=            -73.3847   YY=            -91.2958   ZZ=            -88.5641
   XY=              1.8534   XZ=             -5.5268   YZ=              0.7150

 Normal termination of Gaussian 09 at Tue May 17 23:33:33 2022.
