 Gaussian 09, Revision C.01,
 Gaussian 09:  EM64L-G09RevC.01 23-Sep-2011

 ----------------------------------------------------------------
 # wb97xd/6-31+g** scrf=(pcm,solvent=chloroform,smd,dovacuum) nmr
 ----------------------------------------------------------------

 99/9=1/99;
 -------
 comment
 -------
 Charge =  0 Multiplicity = 1

                         Standard orientation:
 ---------------------------------------------------------------------
 Center     Atomic      Atomic             Coordinates (Angstroms)
 Number     Number       Type             X           Y           Z
 ---------------------------------------------------------------------
      1          6           0       -2.353282   -0.985057    0.924737
      2          6           0       -3.835877    0.540956   -0.879789
      3          6           0       -3.742067   -0.909861    1.045863
      4          6           0       -1.689236   -0.295566   -0.100645
      5          6           0       -2.447852    0.467679   -1.002883
      6          6           0       -4.482185   -0.147242    0.144589
      7          6           0       -0.178765   -0.379327   -0.225196
      8          6           0        0.536105    0.959538    0.016218
      9          6           0        2.037023    0.781763   -0.084375
     10          8           0        2.479301   -0.213617    0.735407
     11          6           0        3.893402   -0.456933    0.715464
     12          8           0        0.129253   -0.850005   -1.542465
     13          6           0        0.213564    1.592840    1.369685
     14          8           0        2.759033    1.494866   -0.771051
     15          6           0        4.244098   -1.406375   -0.414773
     16          1           0       -1.794482   -1.584901    1.640185
     17          1           0       -4.412661    1.135313   -1.583949
     18          1           0       -4.247553   -1.446405    1.844931
     19          1           0       -1.957488    1.007915   -1.811110
     20          1           0       -5.563374   -0.089313    0.240414
     21          1           0        0.193362   -1.145384    0.465359
     22          1           0        0.262332    1.665518   -0.779391
     23          1           0        4.151584   -0.916695    1.675062
     24          1           0        4.459037    0.479174    0.645499
     25          1           0       -0.582098   -1.459975   -1.807412
     26          1           0        0.838697    2.475466    1.545891
     27          1           0       -0.831439    1.913814    1.421256
     28          1           0        0.396276    0.892399    2.192165
     29          1           0        3.670487   -2.335085   -0.328363
     30          1           0        5.310743   -1.647432   -0.402006
     31          1           0        3.996316   -0.968858   -1.387034
 ---------------------------------------------------------------------

 SCF Done:  E(RwB97XD) =  -692.445122741     A.U. after   16 cycles

      1  C    Isotropic =    69.8742   Anisotropy =   161.4681

      2  C    Isotropic =    69.0774   Anisotropy =   177.7912

      3  C    Isotropic =    69.8114   Anisotropy =   173.1460

      4  C    Isotropic =    53.0470   Anisotropy =   187.6769

      5  C    Isotropic =    72.8998   Anisotropy =   178.6230

      6  C    Isotropic =    70.5812   Anisotropy =   176.2380

      7  C    Isotropic =   117.0368   Anisotropy =    26.6300

      8  C    Isotropic =   145.7330   Anisotropy =    26.5699

      9  C    Isotropic =    18.4486   Anisotropy =   102.9313

     10  O    Isotropic =   140.5414   Anisotropy =   166.3255

     11  C    Isotropic =   137.4601   Anisotropy =    66.0533

     12  O    Isotropic =   266.8646   Anisotropy =    46.7567

     13  C    Isotropic =   181.0421   Anisotropy =    22.3783

     14  O    Isotropic =   -48.6323   Anisotropy =   534.2993

     15  C    Isotropic =   181.4060   Anisotropy =    25.5314

     16  H    Isotropic =    23.7530   Anisotropy =     7.7899

     17  H    Isotropic =    23.6609   Anisotropy =     5.1440

     18  H    Isotropic =    23.8743   Anisotropy =     4.7330

     19  H    Isotropic =    23.3767   Anisotropy =     9.7925

     20  H    Isotropic =    23.7831   Anisotropy =     4.1436

     21  H    Isotropic =    26.5775   Anisotropy =     3.5126

     22  H    Isotropic =    28.5015   Anisotropy =     5.0355

     23  H    Isotropic =    27.6688   Anisotropy =     8.1790

     24  H    Isotropic =    26.7811   Anisotropy =     6.6614

     25  H    Isotropic =    29.9258   Anisotropy =    14.4065

     26  H    Isotropic =    30.6379   Anisotropy =    10.3124

     27  H    Isotropic =    31.2280   Anisotropy =     6.8009

     28  H    Isotropic =    30.6749   Anisotropy =     7.5142

     29  H    Isotropic =    30.3624   Anisotropy =     7.5799

     30  H    Isotropic =    30.5446   Anisotropy =    11.7132

     31  H    Isotropic =    30.1852   Anisotropy =     6.1128

 The electronic state is 1-A.
 Alpha  occ. eigenvalues --  -19.32654 -19.28174 -19.27304 -10.43841 -10.35976
 Alpha  occ. eigenvalues --  -10.34930 -10.31944 -10.31695 -10.30968 -10.30948
 Alpha  occ. eigenvalues --  -10.30884 -10.30855 -10.30761 -10.29408 -10.28488
 Alpha  occ. eigenvalues --   -1.20770  -1.13006  -1.12186  -0.96419  -0.91607
 Alpha  occ. eigenvalues --   -0.86641  -0.85101  -0.84918  -0.77982  -0.75815
 Alpha  occ. eigenvalues --   -0.71944  -0.70287  -0.67835  -0.64647  -0.61880
 Alpha  occ. eigenvalues --   -0.60197  -0.58668  -0.57245  -0.56308  -0.54810
 Alpha  occ. eigenvalues --   -0.53461  -0.52929  -0.52414  -0.50684  -0.49895
 Alpha  occ. eigenvalues --   -0.49763  -0.47096  -0.46920  -0.46377  -0.45460
 Alpha  occ. eigenvalues --   -0.44949  -0.44619  -0.43426  -0.42571  -0.41635
 Alpha  occ. eigenvalues --   -0.40969  -0.38613  -0.36882  -0.36000  -0.33562
 Alpha  occ. eigenvalues --   -0.32688
 Alpha virt. eigenvalues --    0.04545   0.05107   0.06616   0.07453   0.07750
 Alpha virt. eigenvalues --    0.08060   0.08548   0.09303   0.10008   0.10274
 Alpha virt. eigenvalues --    0.10298   0.11060   0.11595   0.12312   0.12916

 Mulliken atomic charges:
              1
     1  C   -0.212720
     2  C   -0.284031
     3  C   -0.291268
     4  C   -0.240664
     5  C    0.149401
     6  C   -0.132299
     7  C    0.067940
     8  C    0.040969
     9  C    0.223566
    10  O   -0.269198
    11  C   -0.054964
    12  O   -0.547561
    13  C   -0.584906
    14  O   -0.492344
    15  C   -0.493719
    16  H    0.180362
    17  H    0.186788
    18  H    0.185871
    19  H    0.184633
    20  H    0.183847
    21  H    0.159414
    22  H    0.200069
    23  H    0.172367
    24  H    0.179143
    25  H    0.403016
    26  H    0.183994
    27  H    0.186800
    28  H    0.185658
    29  H    0.173234
    30  H    0.176617
    31  H    0.179986
 Sum of Mulliken atomic charges =   0.00000

 Dipole moment (field-independent basis, Debye):
    X=             -2.5564    Y=             -2.0820    Z=              2.7529  Tot=              4.2952
 Quadrupole moment (field-independent basis, Debye-Ang):
   XX=            -78.8024   YY=            -89.9634   ZZ=            -90.0367
   XY=             -7.1255   XZ=              8.3867   YZ=             -0.1361

 Normal termination of Gaussian 09 at Tue May 17 20:07:21 2022.
