 Gaussian 09, Revision C.01,
 Gaussian 09:  EM64L-G09RevC.01 23-Sep-2011

 ----------------------------------------------------------------
 # wb97xd/6-31+g** scrf=(pcm,solvent=chloroform,smd,dovacuum) nmr
 ----------------------------------------------------------------

 99/9=1/99;
 -------
 comment
 -------
 Charge =  0 Multiplicity = 1

                         Standard orientation:
 ---------------------------------------------------------------------
 Center     Atomic      Atomic             Coordinates (Angstroms)
 Number     Number       Type             X           Y           Z
 ---------------------------------------------------------------------
      1          6           0       -1.413267   -0.865258   -1.175420
      2          6           0       -2.932017   -1.173192    1.141223
      3          6           0       -2.063036   -2.074163   -0.919743
      4          6           0       -1.513923    0.207464   -0.275501
      5          6           0       -2.282591    0.036062    0.886842
      6          6           0       -2.822097   -2.227610    0.237929
      7          6           0       -0.791098    1.510726   -0.568239
      8          6           0        0.604177    1.650543    0.066625
      9          6           0        1.545320    0.646770   -0.573545
     10          8           0        2.258264   -0.059084    0.343475
     11          6           0        3.149198   -1.032852   -0.213406
     12          8           0       -1.606075    2.620548   -0.167143
     13          6           0        0.592989    1.620133    1.597723
     14          8           0        1.655007    0.506543   -1.787204
     15          6           0        3.838445   -1.750615    0.930403
     16          1           0       -0.823887   -0.768039   -2.086432
     17          1           0       -3.522038   -1.292256    2.046384
     18          1           0       -1.975417   -2.896460   -1.625382
     19          1           0       -2.376022    0.846556    1.607729
     20          1           0       -3.327047   -3.169292    0.436600
     21          1           0       -0.700769    1.609505   -1.657853
     22          1           0        0.999901    2.639802   -0.203694
     23          1           0        3.895564   -0.533508   -0.841150
     24          1           0        2.582317   -1.753159   -0.813919
     25          1           0       -2.513154    2.417947   -0.457690
     26          1           0        1.585647    1.865269    1.992648
     27          1           0       -0.109965    2.353571    2.005308
     28          1           0        0.327264    0.632392    1.987761
     29          1           0        4.392390   -1.040429    1.553206
     30          1           0        4.532559   -2.507438    0.554565
     31          1           0        3.102497   -2.236565    1.579548
 ---------------------------------------------------------------------

 SCF Done:  E(RwB97XD) =  -692.444447390     A.U. after   15 cycles

      1  C    Isotropic =    70.2657   Anisotropy =   166.0364

      2  C    Isotropic =    70.0457   Anisotropy =   174.8184

      3  C    Isotropic =    70.1007   Anisotropy =   174.2040

      4  C    Isotropic =    54.1808   Anisotropy =   179.9966

      5  C    Isotropic =    72.3731   Anisotropy =   184.0013

      6  C    Isotropic =    71.6804   Anisotropy =   177.3561

      7  C    Isotropic =   121.9879   Anisotropy =    38.3440

      8  C    Isotropic =   150.7435   Anisotropy =    29.1701

      9  C    Isotropic =    20.8320   Anisotropy =    98.2860

     10  O    Isotropic =   123.8826   Anisotropy =   144.8659

     11  C    Isotropic =   136.5204   Anisotropy =    58.7393

     12  O    Isotropic =   281.3579   Anisotropy =    77.7620

     13  C    Isotropic =   187.1076   Anisotropy =     9.4411

     14  O    Isotropic =   -48.5675   Anisotropy =   565.1559

     15  C    Isotropic =   182.9174   Anisotropy =    23.0017

     16  H    Isotropic =    23.9190   Anisotropy =     8.0887

     17  H    Isotropic =    23.7498   Anisotropy =     4.8251

     18  H    Isotropic =    23.9301   Anisotropy =     4.9786

     19  H    Isotropic =    23.3123   Anisotropy =     9.3844

     20  H    Isotropic =    23.7941   Anisotropy =     4.0316

     21  H    Isotropic =    25.8828   Anisotropy =     6.3538

     22  H    Isotropic =    28.3332   Anisotropy =     6.6532

     23  H    Isotropic =    27.5682   Anisotropy =     7.3013

     24  H    Isotropic =    27.8393   Anisotropy =     5.5845

     25  H    Isotropic =    29.9102   Anisotropy =    15.5065

     26  H    Isotropic =    30.4392   Anisotropy =    10.2682

     27  H    Isotropic =    30.0942   Anisotropy =     8.8912

     28  H    Isotropic =    30.7363   Anisotropy =     5.6570

     29  H    Isotropic =    30.5006   Anisotropy =     8.7521

     30  H    Isotropic =    30.5690   Anisotropy =    11.1781

     31  H    Isotropic =    30.6808   Anisotropy =     7.1655

 The electronic state is 1-A.
 Alpha  occ. eigenvalues --  -19.32987 -19.28172 -19.27475 -10.44191 -10.36035
 Alpha  occ. eigenvalues --  -10.35071 -10.32154 -10.31590 -10.30769 -10.30740
 Alpha  occ. eigenvalues --  -10.30707 -10.30669 -10.30582 -10.28823 -10.28492
 Alpha  occ. eigenvalues --   -1.21218  -1.12953  -1.12403  -0.96256  -0.91316
 Alpha  occ. eigenvalues --   -0.86944  -0.85113  -0.84758  -0.77849  -0.75319
 Alpha  occ. eigenvalues --   -0.71218  -0.70054  -0.67997  -0.65305  -0.62432
 Alpha  occ. eigenvalues --   -0.59200  -0.59018  -0.57115  -0.56287  -0.55677
 Alpha  occ. eigenvalues --   -0.54649  -0.53110  -0.51104  -0.50392  -0.49383
 Alpha  occ. eigenvalues --   -0.48798  -0.47412  -0.47266  -0.46393  -0.45278
 Alpha  occ. eigenvalues --   -0.44841  -0.43949  -0.43369  -0.42863  -0.42032
 Alpha  occ. eigenvalues --   -0.40142  -0.38906  -0.37080  -0.36199  -0.33333
 Alpha  occ. eigenvalues --   -0.32501
 Alpha virt. eigenvalues --    0.04916   0.05159   0.06514   0.06853   0.08050
 Alpha virt. eigenvalues --    0.08175   0.08374   0.09410   0.09938   0.10102
 Alpha virt. eigenvalues --    0.10809   0.11191   0.11436   0.11956   0.12703

 Mulliken atomic charges:
              1
     1  C   -0.001757
     2  C   -0.306923
     3  C   -0.304033
     4  C    0.015169
     5  C   -0.090964
     6  C   -0.194534
     7  C    0.065859
     8  C    0.101906
     9  C   -0.040845
    10  O   -0.249718
    11  C    0.147639
    12  O   -0.559892
    13  C   -0.605860
    14  O   -0.464297
    15  C   -0.624083
    16  H    0.178428
    17  H    0.185114
    18  H    0.184455
    19  H    0.185933
    20  H    0.182651
    21  H    0.165549
    22  H    0.214064
    23  H    0.176348
    24  H    0.176756
    25  H    0.394160
    26  H    0.173934
    27  H    0.180054
    28  H    0.181946
    29  H    0.175565
    30  H    0.180785
    31  H    0.176593
 Sum of Mulliken atomic charges =   0.00000

 Dipole moment (field-independent basis, Debye):
    X=             -0.0469    Y=             -2.2105    Z=              1.5107  Tot=              2.6779
 Quadrupole moment (field-independent basis, Debye-Ang):
   XX=            -78.5781   YY=            -87.9613   ZZ=            -93.0868
   XY=             -0.7490   XZ=              1.8905   YZ=              1.7180

 Normal termination of Gaussian 09 at Tue May 17 23:00:49 2022.
