 Gaussian 09, Revision C.01,

 ------------------------------------------------
 # mPW1PW91/6-31+G** scrf=(PCM,solvent=water) nmr
 ------------------------------------------------

 99/9=1/99;
 -------
 comment
 -------
 Charge =  0 Multiplicity = 1

 SCF Done:  E(RmPW1PW91) =  -1002.31599991     A.U. after   14 cycles

      1  C    Isotropic =   122.2784   Anisotropy =    52.0562

      2  C    Isotropic =   160.9349   Anisotropy =    23.6025

      3  H    Isotropic =    29.5024   Anisotropy =     6.9118

      4  H    Isotropic =    29.9758   Anisotropy =     9.2633

      5  C    Isotropic =   167.9769   Anisotropy =    25.4863

      6  H    Isotropic =    29.9359   Anisotropy =    10.2522

      7  C    Isotropic =   152.2611   Anisotropy =    29.3272

      8  H    Isotropic =    28.3063   Anisotropy =     4.3427

      9  C    Isotropic =   155.9625   Anisotropy =    15.3179

     10  H    Isotropic =    27.9176   Anisotropy =     7.0072

     11  C    Isotropic =   113.3093   Anisotropy =    37.5600

     12  H    Isotropic =    27.6661   Anisotropy =     3.2750

     13  C    Isotropic =    89.9690   Anisotropy =   118.7046

     14  C    Isotropic =    50.6881   Anisotropy =   188.9610

     15  C    Isotropic =    41.0517   Anisotropy =   128.4040

     16  C    Isotropic =    44.2078   Anisotropy =   123.2108

     17  C    Isotropic =    93.3067   Anisotropy =    99.2573

     18  C    Isotropic =    87.9186   Anisotropy =   109.0342

     19  H    Isotropic =    25.2604   Anisotropy =     6.8997

     20  H    Isotropic =    24.8280   Anisotropy =     7.7696

     21  O    Isotropic =   227.1126   Anisotropy =    41.7832

     22  H    Isotropic =    26.5329   Anisotropy =    15.4146

     23  O    Isotropic =   222.5637   Anisotropy =    77.8428

     24  H    Isotropic =    21.7426   Anisotropy =    28.4240

     25  O    Isotropic =   285.2779   Anisotropy =    41.6896

     26  H    Isotropic =    28.6025   Anisotropy =    18.9184

     27  C    Isotropic =   170.3820   Anisotropy =    43.2855

     28  H    Isotropic =    30.3464   Anisotropy =     9.9119

     29  H    Isotropic =    30.5498   Anisotropy =    10.0047

     30  H    Isotropic =    30.2335   Anisotropy =     8.5939

     31  O    Isotropic =   271.5728   Anisotropy =    34.3047

     32  H    Isotropic =    29.2275   Anisotropy =    14.7641

     33  H    Isotropic =    29.8494   Anisotropy =     6.5851

     34  C    Isotropic =    43.9178   Anisotropy =   179.9944

     35  C    Isotropic =    86.3995   Anisotropy =   100.4788

     36  H    Isotropic =    26.7141   Anisotropy =     6.6869

     37  H    Isotropic =    26.4991   Anisotropy =     7.5193

     38  C    Isotropic =   177.9116   Anisotropy =    27.7937

     39  H    Isotropic =    29.8073   Anisotropy =     8.3538

     40  H    Isotropic =    30.0518   Anisotropy =     8.7761

     41  H    Isotropic =    29.8974   Anisotropy =     6.1313

     42  C    Isotropic =   164.0690   Anisotropy =    30.3842

     43  H    Isotropic =    29.3214   Anisotropy =     7.6777

     44  H    Isotropic =    29.2118   Anisotropy =     7.3901

     45  C    Isotropic =   176.9701   Anisotropy =    30.7474

     46  H    Isotropic =    30.2809   Anisotropy =    12.1081

     47  H    Isotropic =    30.6372   Anisotropy =     7.4088

     48  H    Isotropic =    30.6548   Anisotropy =     7.0914

 Normal termination of Gaussian 09 at Wed Oct 13 01:56:42 2021.
 Gaussian 09:  EM64L-G09RevC.01 23-Sep-2011

 ----------------------------------------------------------------------
 # B3LYP/6-31+G** geom=allcheck test scrf=(pcm,solvent=water,smd,dovacu
 um)
 ----------------------------------------------------------------------

 Structure from the checkpoint file:  01_RRSS_THC_007_optB_NMR.chk
 -------
 comment
 -------
 Charge =  0 Multiplicity = 1

                         Standard orientation:
 ---------------------------------------------------------------------
 Center     Atomic      Atomic             Coordinates (Angstroms)
 Number     Number       Type             X           Y           Z
 ---------------------------------------------------------------------
      1          6           0       -3.235635   -0.903092    0.301375
      2          6           0       -3.679960    0.312856   -0.531807
      3          1           0       -3.689427    0.053519   -1.598141
      4          1           0       -4.704607    0.596057   -0.259768
      5          6           0       -2.782555    1.536910   -0.336443
      6          1           0       -3.114539    2.330273   -1.018410
      7          6           0       -1.291363    1.225216   -0.586355
      8          1           0       -1.221589    0.928890   -1.641162
      9          6           0       -0.837710    0.020121    0.294977
     10          1           0       -1.029364    0.328294    1.329398
     11          6           0       -1.734324   -1.226640    0.054930
     12          1           0       -1.410310   -2.025438    0.735176
     13          6           0        0.651254   -0.326557    0.196018
     14          6           0        3.453906   -0.830245    0.093765
     15          6           0        1.305923   -0.609524   -1.013038
     16          6           0        1.442833   -0.342323    1.358594
     17          6           0        2.820473   -0.585017    1.315261
     18          6           0        2.682710   -0.836919   -1.070946
     19          1           0        3.411000   -0.578988    2.227059
     20          1           0        3.144104   -1.030765   -2.036539
     21          8           0        0.850584   -0.114677    2.573695
     22          1           0        1.534306   -0.141609    3.263105
     23          8           0        0.650376   -0.703484   -2.209696
     24          1           0       -0.262679   -1.005688   -2.012415
     25          8           0       -1.555154   -1.699058   -1.293043
     26          1           0       -1.843122   -2.632460   -1.298553
     27          6           0       -4.127070   -2.103272   -0.045703
     28          1           0       -5.169405   -1.904676    0.230608
     29          1           0       -3.820678   -2.989350    0.522054
     30          1           0       -4.100549   -2.347906   -1.112166
     31          8           0       -3.468929   -0.650480    1.692636
     32          1           0       -3.038603    0.180666    1.952435
     33          1           0       -2.931345    1.923473    0.678603
     34          6           0       -0.445746    2.487794   -0.401374
     35          6           0        0.285103    2.978791   -1.417782
     36          1           0        0.899641    3.866318   -1.304536
     37          1           0        0.306832    2.492244   -2.389171
     38          6           0       -0.432801    3.164702    0.942854
     39          1           0       -1.420378    3.568298    1.184311
     40          1           0        0.274069    4.001426    0.970453
     41          1           0       -0.136866    2.468782    1.732030
     42          6           0        4.940810   -1.061287    0.027689
     43          1           0        5.276808   -1.566641    0.941340
     44          1           0        5.172596   -1.744267   -0.798680
     45          6           0        5.707069    0.240408   -0.151107
     46          1           0        6.782805    0.043203   -0.195753
     47          1           0        5.522322    0.927810    0.681392
     48          1           0        5.416466    0.748593   -1.076857
 ---------------------------------------------------------------------

 SCF Done:  E(RB3LYP) =  -1002.55833639     A.U. after   14 cycles

 The electronic state is 1-A.
 Alpha  occ. eigenvalues --  -19.18732 -19.17844 -19.16713 -19.16370 -10.25428
 Alpha  occ. eigenvalues --  -10.24863 -10.24588 -10.24448 -10.20120 -10.19719
 Alpha  occ. eigenvalues --  -10.19687 -10.19368 -10.19101 -10.18085 -10.17904
 Alpha  occ. eigenvalues --  -10.17710 -10.17551 -10.17509 -10.17247 -10.17197
 Alpha  occ. eigenvalues --  -10.17078 -10.16959  -1.06502  -1.05863  -1.04081
 Alpha  occ. eigenvalues --   -1.02957  -0.85623  -0.83584  -0.79200  -0.78924
 Alpha  occ. eigenvalues --   -0.75691  -0.74394  -0.73193  -0.71164  -0.68312
 Alpha  occ. eigenvalues --   -0.67444  -0.64382  -0.62061  -0.60800  -0.59902
 Alpha  occ. eigenvalues --   -0.58770  -0.56675  -0.54248  -0.53200  -0.52638
 Alpha  occ. eigenvalues --   -0.50585  -0.49520  -0.49012  -0.47373  -0.46509
 Alpha  occ. eigenvalues --   -0.45192  -0.44156  -0.43812  -0.43609  -0.42807
 Alpha  occ. eigenvalues --   -0.42150  -0.41265  -0.40950  -0.40321  -0.40063
 Alpha  occ. eigenvalues --   -0.39546  -0.38746  -0.38614  -0.38398  -0.37662
 Alpha  occ. eigenvalues --   -0.37041  -0.36942  -0.36089  -0.35788  -0.35383
 Alpha  occ. eigenvalues --   -0.34663  -0.33945  -0.33364  -0.33082  -0.32526
 Alpha  occ. eigenvalues --   -0.31914  -0.31220  -0.30154  -0.29744  -0.26900
 Alpha  occ. eigenvalues --   -0.24628  -0.22804  -0.21892
 Alpha virt. eigenvalues --   -0.00620  -0.00066   0.00310   0.00587   0.01418
 Alpha virt. eigenvalues --    0.01836   0.02102   0.02762   0.03312   0.03727
 Alpha virt. eigenvalues --    0.03997   0.04404   0.04497   0.04952   0.05507

 Mulliken atomic charges:
              1
     1  C    0.209123
     2  C   -0.310082
     3  H    0.163413
     4  H    0.159775
     5  C   -0.544969
     6  H    0.157325
     7  C    0.158049
     8  H    0.144227
     9  C   -0.289536
    10  H    0.167285
    11  C   -0.220684
    12  H    0.156985
    13  C    0.442358
    14  C   -0.077712
    15  C   -1.344942
    16  C    0.365195
    17  C   -0.143011
    18  C    0.427380
    19  H    0.148549
    20  H    0.146972
    21  O   -0.593995
    22  H    0.448693
    23  O   -0.624992
    24  H    0.476767
    25  O   -0.681708
    26  H    0.444593
    27  C   -0.343705
    28  H    0.168370
    29  H    0.164706
    30  H    0.177185
    31  O   -0.573177
    32  H    0.406029
    33  H    0.157208
    34  C    0.645357
    35  C   -0.531729
    36  H    0.145403
    37  H    0.141184
    38  C   -0.625614
    39  H    0.172889
    40  H    0.157207
    41  H    0.171170
    42  C    0.017501
    43  H    0.151087
    44  H    0.151735
    45  C   -0.605901
    46  H    0.152297
    47  H    0.157876
    48  H    0.157866
 Sum of Mulliken atomic charges =   0.00000

 Dipole moment (field-independent basis, Debye):
    X=             -0.3529    Y=             -1.0071    Z=              3.0414  Tot=              3.2231
 Quadrupole moment (field-independent basis, Debye-Ang):
   XX=           -125.3702   YY=           -129.2061   ZZ=           -136.2029
   XY=             -0.6564   XZ=             16.6088   YZ=              7.0160

 Normal termination of Gaussian 09 at Wed Oct 13 02:12:27 2021.
