 Gaussian 09, Revision C.01,

 ------------------------------------------------
 # mPW1PW91/6-31+G** scrf=(PCM,solvent=water) nmr
 ------------------------------------------------

 99/9=1/99;
 -------
 comment
 -------
 Charge =  0 Multiplicity = 1

 SCF Done:  E(RmPW1PW91) =  -1002.31542106     A.U. after   14 cycles

      1  C    Isotropic =   121.6915   Anisotropy =    51.4158

      2  C    Isotropic =   161.5383   Anisotropy =    23.0007

      3  H    Isotropic =    29.4766   Anisotropy =     6.4811

      4  H    Isotropic =    29.8992   Anisotropy =     9.3014

      5  C    Isotropic =   162.3978   Anisotropy =    27.4533

      6  H    Isotropic =    29.8158   Anisotropy =     8.8417

      7  C    Isotropic =   155.9713   Anisotropy =    28.9457

      8  H    Isotropic =    28.4251   Anisotropy =     4.6859

      9  C    Isotropic =   154.2596   Anisotropy =    19.8248

     10  H    Isotropic =    27.1714   Anisotropy =     6.7394

     11  C    Isotropic =   112.8169   Anisotropy =    36.5203

     12  H    Isotropic =    27.6704   Anisotropy =     3.3682

     13  C    Isotropic =    85.6170   Anisotropy =   122.2057

     14  C    Isotropic =    49.9052   Anisotropy =   189.7608

     15  C    Isotropic =    41.9023   Anisotropy =   130.3787

     16  C    Isotropic =    45.0554   Anisotropy =   124.4440

     17  C    Isotropic =    92.0450   Anisotropy =    96.5901

     18  C    Isotropic =    87.5579   Anisotropy =   109.1377

     19  H    Isotropic =    25.3191   Anisotropy =     7.1602

     20  H    Isotropic =    24.9596   Anisotropy =     7.7457

     21  O    Isotropic =   228.6191   Anisotropy =    49.7852

     22  H    Isotropic =    26.7063   Anisotropy =    15.4569

     23  O    Isotropic =   219.3670   Anisotropy =    76.3896

     24  H    Isotropic =    21.7587   Anisotropy =    27.7508

     25  O    Isotropic =   285.1487   Anisotropy =    44.1339

     26  H    Isotropic =    28.7201   Anisotropy =    18.8178

     27  C    Isotropic =   167.9263   Anisotropy =    45.4346

     28  H    Isotropic =    30.1830   Anisotropy =     9.5709

     29  H    Isotropic =    30.7416   Anisotropy =     9.3971

     30  H    Isotropic =    30.2112   Anisotropy =     9.0365

     31  O    Isotropic =   266.5451   Anisotropy =    50.8034

     32  H    Isotropic =    30.2611   Anisotropy =    16.0653

     33  H    Isotropic =    29.8215   Anisotropy =     6.1924

     34  C    Isotropic =    42.0610   Anisotropy =   185.8257

     35  C    Isotropic =    91.3591   Anisotropy =   115.5358

     36  H    Isotropic =    26.4910   Anisotropy =     5.1705

     37  H    Isotropic =    26.4469   Anisotropy =     7.5614

     38  C    Isotropic =   169.8173   Anisotropy =    40.3450

     39  H    Isotropic =    29.9612   Anisotropy =     5.9536

     40  H    Isotropic =    30.0660   Anisotropy =     9.0640

     41  H    Isotropic =    29.6722   Anisotropy =     8.2663

     42  C    Isotropic =   164.7117   Anisotropy =    27.4229

     43  H    Isotropic =    29.1264   Anisotropy =     7.3547

     44  H    Isotropic =    29.2489   Anisotropy =     7.1907

     45  C    Isotropic =   177.9001   Anisotropy =    31.7018

     46  H    Isotropic =    30.2775   Anisotropy =    12.0025

     47  H    Isotropic =    30.5545   Anisotropy =     7.4315

     48  H    Isotropic =    30.6578   Anisotropy =     7.3329

 Normal termination of Gaussian 09 at Fri Dec 23 14:41:41 2022.
 Gaussian 09:  EM64L-G09RevC.01 23-Sep-2011

 ----------------------------------------------------------------------
 # B3LYP/6-31+G** geom=allcheck test scrf=(pcm,solvent=water,smd,dovacu
 um)
 ----------------------------------------------------------------------

 Structure from the checkpoint file:  01_RRSS_THC_009_optB_NMR.chk
 -------
 comment
 -------
 Charge =  0 Multiplicity = 1

                         Standard orientation:
 ---------------------------------------------------------------------
 Center     Atomic      Atomic             Coordinates (Angstroms)
 Number     Number       Type             X           Y           Z
 ---------------------------------------------------------------------
      1          6           0       -3.036351   -1.285991    0.187022
      2          6           0       -3.683859   -0.055108   -0.469673
      3          1           0       -3.657459   -0.149462   -1.562520
      4          1           0       -4.739538    0.011932   -0.177471
      5          6           0       -2.999040    1.253252   -0.066052
      6          1           0       -3.467463    2.079875   -0.615556
      7          6           0       -1.479629    1.236209   -0.338396
      8          1           0       -1.361032    1.146328   -1.425345
      9          6           0       -0.824489   -0.012203    0.331928
     10          1           0       -1.043775    0.077469    1.403224
     11          6           0       -1.514277   -1.325925   -0.124233
     12          1           0       -1.048733   -2.165897    0.408256
     13          6           0        0.697896   -0.097897    0.180380
     14          6           0        3.541747   -0.105154    0.005413
     15          6           0        1.360391   -0.052669   -1.056133
     16          6           0        1.508790   -0.199525    1.324863
     17          6           0        2.906149   -0.203406    1.246300
     18          6           0        2.754116   -0.038765   -1.146392
     19          1           0        3.508753   -0.283151    2.146644
     20          1           0        3.217628    0.010111   -2.129038
     21          8           0        0.918031   -0.309405    2.556733
     22          1           0        1.604435   -0.219672    3.237895
     23          8           0        0.700159   -0.047747   -2.253873
     24          1           0       -0.149032   -0.520286   -2.114434
     25          8           0       -1.303953   -1.534147   -1.532152
     26          1           0       -1.472856   -2.479169   -1.707600
     27          6           0       -3.747319   -2.557516   -0.289406
     28          1           0       -4.796183   -2.557591    0.029413
     29          1           0       -3.288664   -3.447319    0.156575
     30          1           0       -3.722332   -2.663500   -1.378372
     31          8           0       -3.249381   -1.193416    1.601094
     32          1           0       -2.793274   -1.936681    2.032611
     33          1           0       -3.190565    1.442569    0.998310
     34          6           0       -0.877955    2.581637    0.072166
     35          6           0       -0.644281    2.935003    1.347908
     36          1           0       -0.210700    3.897658    1.599924
     37          1           0       -0.877106    2.273463    2.176359
     38          6           0       -0.549916    3.516553   -1.060500
     39          1           0        0.191983    3.062707   -1.725388
     40          1           0       -0.140225    4.468036   -0.705419
     41          1           0       -1.450768    3.738586   -1.641677
     42          6           0        5.044526   -0.113786   -0.095148
     43          1           0        5.360426    0.487019   -0.956739
     44          1           0        5.475800    0.373285    0.787932
     45          6           0        5.595303   -1.525766   -0.223640
     46          1           0        6.687297   -1.500934   -0.294587
     47          1           0        5.208270   -2.023276   -1.119395
     48          1           0        5.325446   -2.138038    0.643529
 ---------------------------------------------------------------------

 SCF Done:  E(RB3LYP) =  -1002.55717575     A.U. after   14 cycles

 The electronic state is 1-A.
 Alpha  occ. eigenvalues --  -19.18676 -19.17815 -19.16744 -19.16086 -10.25321
 Alpha  occ. eigenvalues --  -10.24809 -10.24395 -10.24358 -10.19785 -10.19641
 Alpha  occ. eigenvalues --  -10.19574 -10.19260 -10.18892 -10.18072 -10.17864
 Alpha  occ. eigenvalues --  -10.17574 -10.17547 -10.17486 -10.17267 -10.17072
 Alpha  occ. eigenvalues --  -10.16961 -10.16759  -1.06455  -1.05831  -1.04045
 Alpha  occ. eigenvalues --   -1.02772  -0.85546  -0.83479  -0.79134  -0.78871
 Alpha  occ. eigenvalues --   -0.75562  -0.73943  -0.73150  -0.71091  -0.68045
 Alpha  occ. eigenvalues --   -0.67509  -0.64338  -0.62001  -0.60909  -0.59980
 Alpha  occ. eigenvalues --   -0.58624  -0.56679  -0.54422  -0.53075  -0.52279
 Alpha  occ. eigenvalues --   -0.49867  -0.49311  -0.48638  -0.47724  -0.46290
 Alpha  occ. eigenvalues --   -0.44890  -0.44398  -0.43375  -0.43318  -0.42626
 Alpha  occ. eigenvalues --   -0.41853  -0.41692  -0.41140  -0.40444  -0.40348
 Alpha  occ. eigenvalues --   -0.39728  -0.39201  -0.38432  -0.37757  -0.37519
 Alpha  occ. eigenvalues --   -0.36852  -0.36594  -0.36216  -0.35935  -0.35154
 Alpha  occ. eigenvalues --   -0.34441  -0.34081  -0.33526  -0.33086  -0.32538
 Alpha  occ. eigenvalues --   -0.32001  -0.30878  -0.29708  -0.29208  -0.26915
 Alpha  occ. eigenvalues --   -0.24347  -0.22691  -0.21865
 Alpha virt. eigenvalues --   -0.00596   0.00037   0.00197   0.00795   0.01395
 Alpha virt. eigenvalues --    0.01869   0.01916   0.02931   0.03360   0.03677
 Alpha virt. eigenvalues --    0.04018   0.04284   0.04427   0.04758   0.05612

 Mulliken atomic charges:
              1
     1  C    0.333460
     2  C   -0.287306
     3  H    0.166809
     4  H    0.155694
     5  C   -0.647968
     6  H    0.151142
     7  C    0.174153
     8  H    0.144703
     9  C   -0.351700
    10  H    0.169552
    11  C   -0.247541
    12  H    0.155118
    13  C    0.204774
    14  C    0.052398
    15  C   -1.216865
    16  C    0.668901
    17  C   -0.159927
    18  C    0.334585
    19  H    0.148036
    20  H    0.146144
    21  O   -0.586030
    22  H    0.444943
    23  O   -0.630590
    24  H    0.473071
    25  O   -0.681020
    26  H    0.447654
    27  C   -0.350297
    28  H    0.167312
    29  H    0.163443
    30  H    0.168878
    31  O   -0.594436
    32  H    0.405465
    33  H    0.157491
    34  C    0.520344
    35  C   -0.469159
    36  H    0.145775
    37  H    0.145011
    38  C   -0.637404
    39  H    0.171003
    40  H    0.154970
    41  H    0.171356
    42  C   -0.057999
    43  H    0.151567
    44  H    0.151060
    45  C   -0.593351
    46  H    0.151814
    47  H    0.157339
    48  H    0.157630
 Sum of Mulliken atomic charges =   0.00000

 Dipole moment (field-independent basis, Debye):
    X=              0.2137    Y=             -4.5757    Z=              1.5795  Tot=              4.8453
 Quadrupole moment (field-independent basis, Debye-Ang):
   XX=           -127.0271   YY=           -124.2826   ZZ=           -133.4723
   XY=              7.5635   XZ=             16.5919   YZ=             -0.6953

 Normal termination of Gaussian 09 at Fri Dec 23 15:06:10 2022.
