 Gaussian 09, Revision C.01,

 ------------------------------------------------
 # mPW1PW91/6-31+G** scrf=(PCM,solvent=water) nmr
 ------------------------------------------------

 99/9=1/99;
 -------
 comment
 -------
 Charge =  0 Multiplicity = 1

 SCF Done:  E(RmPW1PW91) =  -1002.31452115     A.U. after   14 cycles

      1  C    Isotropic =   122.2512   Anisotropy =    49.4490

      2  C    Isotropic =   158.1419   Anisotropy =    23.1672

      3  H    Isotropic =    29.3795   Anisotropy =     6.2627

      4  H    Isotropic =    30.2631   Anisotropy =     8.8500

      5  C    Isotropic =   162.7485   Anisotropy =    28.7041

      6  H    Isotropic =    29.8352   Anisotropy =     8.7289

      7  C    Isotropic =   155.8250   Anisotropy =    28.9838

      8  H    Isotropic =    28.4560   Anisotropy =     4.5113

      9  C    Isotropic =   154.1920   Anisotropy =    19.7351

     10  H    Isotropic =    27.2716   Anisotropy =     6.9712

     11  C    Isotropic =   114.9383   Anisotropy =    35.1173

     12  H    Isotropic =    27.4030   Anisotropy =     3.6083

     13  C    Isotropic =    86.0535   Anisotropy =   121.4124

     14  C    Isotropic =    49.8135   Anisotropy =   189.8574

     15  C    Isotropic =    41.9272   Anisotropy =   130.9990

     16  C    Isotropic =    44.7958   Anisotropy =   125.5621

     17  C    Isotropic =    92.0506   Anisotropy =    95.5888

     18  C    Isotropic =    87.4251   Anisotropy =   108.5678

     19  H    Isotropic =    25.3561   Anisotropy =     7.1115

     20  H    Isotropic =    24.9830   Anisotropy =     7.6943

     21  O    Isotropic =   227.8217   Anisotropy =    49.7393

     22  H    Isotropic =    26.6899   Anisotropy =    15.4447

     23  O    Isotropic =   219.3569   Anisotropy =    74.2204

     24  H    Isotropic =    21.5679   Anisotropy =    28.3910

     25  O    Isotropic =   288.7072   Anisotropy =    47.6113

     26  H    Isotropic =    28.5811   Anisotropy =    19.1901

     27  C    Isotropic =   166.8801   Anisotropy =    46.2190

     28  H    Isotropic =    30.5103   Anisotropy =     9.3889

     29  H    Isotropic =    30.4285   Anisotropy =     9.3294

     30  H    Isotropic =    30.1382   Anisotropy =     8.8397

     31  O    Isotropic =   261.9584   Anisotropy =    97.6125

     32  H    Isotropic =    30.6891   Anisotropy =    17.6569

     33  H    Isotropic =    29.7490   Anisotropy =     6.0477

     34  C    Isotropic =    42.4878   Anisotropy =   185.6905

     35  C    Isotropic =    91.5085   Anisotropy =   114.6302

     36  H    Isotropic =    26.4798   Anisotropy =     5.1813

     37  H    Isotropic =    26.4266   Anisotropy =     7.3407

     38  C    Isotropic =   169.8878   Anisotropy =    40.3566

     39  H    Isotropic =    29.9847   Anisotropy =     5.9859

     40  H    Isotropic =    30.0603   Anisotropy =     9.0708

     41  H    Isotropic =    29.6710   Anisotropy =     8.2196

     42  C    Isotropic =   164.5336   Anisotropy =    27.2054

     43  H    Isotropic =    29.1024   Anisotropy =     7.2745

     44  H    Isotropic =    29.2331   Anisotropy =     7.1601

     45  C    Isotropic =   178.5684   Anisotropy =    31.4920

     46  H    Isotropic =    30.2466   Anisotropy =    12.0416

     47  H    Isotropic =    30.5502   Anisotropy =     7.4389

     48  H    Isotropic =    30.6505   Anisotropy =     7.3319

 Normal termination of Gaussian 09 at Wed Oct 13 01:56:29 2021.
 Gaussian 09:  EM64L-G09RevC.01 23-Sep-2011

 ----------------------------------------------------------------------
 # B3LYP/6-31+G** geom=allcheck test scrf=(pcm,solvent=water,smd,dovacu
 um)
 ----------------------------------------------------------------------

 Structure from the checkpoint file:  01_RRSS_THC_006_optB_NMR.chk
 -------
 comment
 -------
 Charge =  0 Multiplicity = 1

                         Standard orientation:
 ---------------------------------------------------------------------
 Center     Atomic      Atomic             Coordinates (Angstroms)
 Number     Number       Type             X           Y           Z
 ---------------------------------------------------------------------
      1          6           0       -3.040315   -1.281247    0.217233
      2          6           0       -3.671545   -0.066159   -0.484068
      3          1           0       -3.626912   -0.191399   -1.573233
      4          1           0       -4.732020    0.014142   -0.213788
      5          6           0       -2.986660    1.247626   -0.104514
      6          1           0       -3.448582    2.062747   -0.676253
      7          6           0       -1.466407    1.217092   -0.366988
      8          1           0       -1.340796    1.092382   -1.449759
      9          6           0       -0.817276   -0.012209    0.344746
     10          1           0       -1.035870    0.111708    1.412721
     11          6           0       -1.513565   -1.339875   -0.065612
     12          1           0       -1.059938   -2.159641    0.507453
     13          6           0        0.706379   -0.098386    0.190242
     14          6           0        3.550742   -0.107867    0.000644
     15          6           0        1.363656   -0.107855   -1.050424
     16          6           0        1.524195   -0.139066    1.333898
     17          6           0        2.921389   -0.145330    1.247887
     18          6           0        2.757081   -0.096760   -1.148595
     19          1           0        3.528496   -0.175809    2.148148
     20          1           0        3.215330   -0.093109   -2.134826
     21          8           0        0.941153   -0.177783    2.573168
     22          1           0        1.636569   -0.141765    3.249050
     23          8           0        0.698689   -0.153637   -2.244928
     24          1           0       -0.148835   -0.621078   -2.080030
     25          8           0       -1.291377   -1.607420   -1.463241
     26          1           0       -1.387221   -2.572794   -1.574508
     27          6           0       -3.744733   -2.565771   -0.235212
     28          1           0       -4.802022   -2.552541    0.054128
     29          1           0       -3.301774   -3.441202    0.253069
     30          1           0       -3.691874   -2.707905   -1.319085
     31          8           0       -3.245535   -1.167727    1.630136
     32          1           0       -4.197266   -1.044478    1.790533
     33          1           0       -3.184089    1.461925    0.954027
     34          6           0       -0.869289    2.576743    0.002341
     35          6           0       -0.613351    2.961024    1.264752
     36          1           0       -0.180848    3.931589    1.486324
     37          1           0       -0.820199    2.315412    2.112608
     38          6           0       -0.569451    3.487921   -1.157285
     39          1           0        0.164409    3.024532   -1.824601
     40          1           0       -0.161513    4.450629   -0.831659
     41          1           0       -1.482168    3.689260   -1.727339
     42          6           0        5.052894   -0.119740   -0.106862
     43          1           0        5.363805    0.438442   -0.998416
     44          1           0        5.487956    0.410446    0.749110
     45          6           0        5.604831   -1.535747   -0.168819
     46          1           0        6.696425   -1.513295   -0.246414
     47          1           0        5.213957   -2.076932   -1.037167
     48          1           0        5.340094   -2.105085    0.728652
 ---------------------------------------------------------------------

 SCF Done:  E(RB3LYP) =  -1002.55630978     A.U. after   14 cycles

 The electronic state is 1-A.
 Alpha  occ. eigenvalues --  -19.18672 -19.17968 -19.16667 -19.15947 -10.25349
 Alpha  occ. eigenvalues --  -10.24809 -10.24615 -10.24414 -10.19866 -10.19635
 Alpha  occ. eigenvalues --  -10.19578 -10.19288 -10.18899 -10.18069 -10.17857
 Alpha  occ. eigenvalues --  -10.17529 -10.17468 -10.17417 -10.17272 -10.17069
 Alpha  occ. eigenvalues --  -10.16941 -10.16753  -1.06471  -1.05868  -1.04039
 Alpha  occ. eigenvalues --   -1.02793  -0.85541  -0.83475  -0.79149  -0.78766
 Alpha  occ. eigenvalues --   -0.75457  -0.74127  -0.73134  -0.71119  -0.68038
 Alpha  occ. eigenvalues --   -0.67494  -0.64411  -0.62054  -0.60715  -0.59959
 Alpha  occ. eigenvalues --   -0.58716  -0.57283  -0.54231  -0.52823  -0.51181
 Alpha  occ. eigenvalues --   -0.50119  -0.49096  -0.48348  -0.47489  -0.46938
 Alpha  occ. eigenvalues --   -0.45549  -0.44538  -0.44106  -0.43135  -0.42615
 Alpha  occ. eigenvalues --   -0.41916  -0.41418  -0.41249  -0.40535  -0.40095
 Alpha  occ. eigenvalues --   -0.39721  -0.39221  -0.38787  -0.37686  -0.37346
 Alpha  occ. eigenvalues --   -0.37315  -0.36375  -0.36152  -0.35959  -0.35047
 Alpha  occ. eigenvalues --   -0.34442  -0.33931  -0.33760  -0.33080  -0.32602
 Alpha  occ. eigenvalues --   -0.31818  -0.30719  -0.29739  -0.28368  -0.27499
 Alpha  occ. eigenvalues --   -0.24349  -0.22712  -0.21837
 Alpha virt. eigenvalues --   -0.00572   0.00050   0.00220   0.00773   0.01396
 Alpha virt. eigenvalues --    0.01850   0.02004   0.02677   0.03376   0.03774
 Alpha virt. eigenvalues --    0.04099   0.04367   0.04477   0.04953   0.05386

 Mulliken atomic charges:
              1
     1  C    0.296508
     2  C   -0.318467
     3  H    0.162317
     4  H    0.156056
     5  C   -0.536282
     6  H    0.150927
     7  C    0.000824
     8  H    0.145038
     9  C   -0.153441
    10  H    0.170107
    11  C   -0.310783
    12  H    0.156890
    13  C    0.263161
    14  C    0.044209
    15  C   -1.261990
    16  C    0.683526
    17  C   -0.163301
    18  C    0.308668
    19  H    0.147799
    20  H    0.146062
    21  O   -0.594962
    22  H    0.447420
    23  O   -0.629508
    24  H    0.473021
    25  O   -0.667567
    26  H    0.446202
    27  C   -0.379778
    28  H    0.164830
    29  H    0.163237
    30  H    0.169643
    31  O   -0.616021
    32  H    0.412948
    33  H    0.157182
    34  C    0.574048
    35  C   -0.478500
    36  H    0.145464
    37  H    0.144717
    38  C   -0.639134
    39  H    0.170710
    40  H    0.155082
    41  H    0.171163
    42  C   -0.054174
    43  H    0.151569
    44  H    0.151129
    45  C   -0.593325
    46  H    0.151799
    47  H    0.157324
    48  H    0.157652
 Sum of Mulliken atomic charges =   0.00000

 Dipole moment (field-independent basis, Debye):
    X=             -2.5338    Y=             -2.9151    Z=              1.1701  Tot=              4.0357
 Quadrupole moment (field-independent basis, Debye-Ang):
   XX=           -106.3492   YY=           -129.4654   ZZ=           -136.3957
   XY=              5.6171   XZ=             12.0612   YZ=              3.1398

 Normal termination of Gaussian 09 at Wed Oct 13 02:12:09 2021.
