 Gaussian 09, Revision C.01,

 ------------------------------------------------
 # mPW1PW91/6-31+G** scrf=(PCM,solvent=water) nmr
 ------------------------------------------------

 99/9=1/99;
 -------
 comment
 -------
 Charge =  0 Multiplicity = 1

 SCF Done:  E(RmPW1PW91) =  -1002.30385532     A.U. after   14 cycles

      1  C    Isotropic =   120.9206   Anisotropy =    45.9406

      2  C    Isotropic =   159.6043   Anisotropy =    25.8765

      3  H    Isotropic =    29.9086   Anisotropy =     9.3481

      4  H    Isotropic =    29.4474   Anisotropy =     6.5669

      5  C    Isotropic =   166.8052   Anisotropy =    21.4314

      6  H    Isotropic =    29.3771   Anisotropy =     8.2402

      7  C    Isotropic =   150.1803   Anisotropy =    21.2531

      8  H    Isotropic =    28.1173   Anisotropy =     6.0182

      9  C    Isotropic =   148.1000   Anisotropy =    29.0420

     10  H    Isotropic =    28.1783   Anisotropy =     6.0285

     11  C    Isotropic =   119.2270   Anisotropy =    31.0131

     12  H    Isotropic =    26.4000   Anisotropy =     3.3251

     13  C    Isotropic =    91.2042   Anisotropy =   118.6315

     14  C    Isotropic =    49.6224   Anisotropy =   190.1114

     15  C    Isotropic =    42.8116   Anisotropy =   126.5252

     16  C    Isotropic =    43.5364   Anisotropy =   119.6951

     17  C    Isotropic =    88.9001   Anisotropy =    99.1276

     18  C    Isotropic =    90.3596   Anisotropy =    99.3411

     19  H    Isotropic =    25.1205   Anisotropy =     7.7731

     20  H    Isotropic =    25.0931   Anisotropy =     7.2106

     21  O    Isotropic =   230.5547   Anisotropy =    55.2783

     22  H    Isotropic =    26.4071   Anisotropy =    15.4570

     23  O    Isotropic =   226.8567   Anisotropy =    53.0822

     24  H    Isotropic =    26.5257   Anisotropy =    15.3622

     25  O    Isotropic =   295.2124   Anisotropy =    28.5769

     26  H    Isotropic =    29.4042   Anisotropy =    18.5110

     27  C    Isotropic =   174.9429   Anisotropy =    32.0242

     28  H    Isotropic =    30.7203   Anisotropy =     9.9756

     29  H    Isotropic =    30.1779   Anisotropy =     8.0492

     30  H    Isotropic =    29.8972   Anisotropy =     7.7894

     31  O    Isotropic =   257.6818   Anisotropy =    79.5273

     32  H    Isotropic =    28.4423   Anisotropy =    14.4023

     33  H    Isotropic =    29.8688   Anisotropy =     9.4675

     34  C    Isotropic =    43.0676   Anisotropy =   180.2537

     35  C    Isotropic =    84.3332   Anisotropy =    96.4016

     36  H    Isotropic =    26.8065   Anisotropy =     6.0180

     37  H    Isotropic =    27.0676   Anisotropy =     7.7433

     38  C    Isotropic =   170.5880   Anisotropy =    26.8877

     39  H    Isotropic =    29.5851   Anisotropy =     7.2515

     40  H    Isotropic =    29.7341   Anisotropy =     8.5785

     41  H    Isotropic =    29.5043   Anisotropy =     3.7488

     42  C    Isotropic =   164.3943   Anisotropy =    28.2079

     43  H    Isotropic =    29.2004   Anisotropy =     7.3362

     44  H    Isotropic =    29.1689   Anisotropy =     7.1022

     45  C    Isotropic =   178.7685   Anisotropy =    30.7807

     46  H    Isotropic =    30.2082   Anisotropy =    12.1551

     47  H    Isotropic =    30.6505   Anisotropy =     7.4802

     48  H    Isotropic =    30.6292   Anisotropy =     7.5111

 Normal termination of Gaussian 09 at Fri Dec 23 14:21:07 2022.
 Gaussian 09:  EM64L-G09RevC.01 23-Sep-2011

 ----------------------------------------------------------------------
 # B3LYP/6-31+G** geom=allcheck test scrf=(pcm,solvent=water,smd,dovacu
 um)
 ----------------------------------------------------------------------

 Structure from the checkpoint file:  02_RSSS_THC_004_optB_NMR.chk
 -------
 comment
 -------
 Charge =  0 Multiplicity = 1

                         Standard orientation:
 ---------------------------------------------------------------------
 Center     Atomic      Atomic             Coordinates (Angstroms)
 Number     Number       Type             X           Y           Z
 ---------------------------------------------------------------------
      1          6           0        3.123994   -1.061129    0.010854
      2          6           0        3.696760    0.351614    0.144025
      3          1           0        4.724152    0.305249    0.528395
      4          1           0        3.798565    0.794628   -0.852657
      5          6           0        2.859146    1.256769    1.045907
      6          1           0        2.977312    0.911194    2.081414
      7          6           0        1.347791    1.286769    0.720982
      8          1           0        0.888428    1.650800    1.653576
      9          6           0        0.768696   -0.151793    0.500848
     10          1           0        0.866748   -0.675049    1.462816
     11          6           0        1.646446   -0.995457   -0.454328
     12          1           0        1.646126   -0.595159   -1.470589
     13          6           0       -0.747962   -0.130502    0.257151
     14          6           0       -3.576897    0.003070   -0.061698
     15          6           0       -1.613756    0.033156    1.356535
     16          6           0       -1.348516   -0.223403   -1.005654
     17          6           0       -2.738274   -0.162796   -1.167989
     18          6           0       -3.002636    0.095077    1.208138
     19          1           0       -3.179081   -0.252840   -2.157570
     20          1           0       -3.644650    0.216854    2.076152
     21          8           0       -0.576814   -0.396752   -2.119055
     22          1           0       -1.114742   -0.210891   -2.907106
     23          8           0       -1.078120    0.138330    2.613961
     24          1           0       -1.798764    0.209579    3.260564
     25          8           0        1.161652   -2.346599   -0.566444
     26          1           0        0.279782   -2.265595   -0.977427
     27          6           0        3.333589   -1.875862    1.295650
     28          1           0        4.401745   -1.943416    1.534378
     29          1           0        2.988976   -2.908547    1.171676
     30          1           0        2.823245   -1.446196    2.161285
     31          8           0        3.873953   -1.740562   -1.013632
     32          1           0        3.346868   -2.539323   -1.217368
     33          1           0        3.274445    2.272273    1.027596
     34          6           0        0.981770    2.337082   -0.338947
     35          6           0        0.012590    3.238361   -0.090441
     36          1           0       -0.262238    3.998770   -0.814715
     37          1           0       -0.542225    3.233977    0.843327
     38          6           0        1.718655    2.390649   -1.647246
     39          1           0        2.759922    2.686295   -1.491723
     40          1           0        1.279933    3.126168   -2.331375
     41          1           0        1.690522    1.430360   -2.163629
     42          6           0       -5.073453    0.049603   -0.232889
     43          1           0       -5.512970    0.697638    0.535191
     44          1           0       -5.320529    0.511966   -1.196343
     45          6           0       -5.695025   -1.336314   -0.153301
     46          1           0       -6.780269   -1.272169   -0.280684
     47          1           0       -5.494235   -1.806806    0.815205
     48          1           0       -5.299951   -1.994462   -0.934609
 ---------------------------------------------------------------------

 SCF Done:  E(RB3LYP) =  -1002.54669815     A.U. after   14 cycles

 The electronic state is 1-A.
 Alpha  occ. eigenvalues --  -19.18819 -19.18774 -19.16334 -19.15736 -10.25582
 Alpha  occ. eigenvalues --  -10.25521 -10.24331 -10.23415 -10.19903 -10.19877
 Alpha  occ. eigenvalues --  -10.19676 -10.19620 -10.19197 -10.18170 -10.18044
 Alpha  occ. eigenvalues --  -10.17976 -10.17841 -10.17507 -10.17118 -10.17078
 Alpha  occ. eigenvalues --  -10.16897 -10.16770  -1.06885  -1.06518  -1.03915
 Alpha  occ. eigenvalues --   -1.01547  -0.85816  -0.83644  -0.79254  -0.78907
 Alpha  occ. eigenvalues --   -0.75245  -0.73403  -0.73242  -0.71204  -0.68759
 Alpha  occ. eigenvalues --   -0.67253  -0.64300  -0.63737  -0.61117  -0.60296
 Alpha  occ. eigenvalues --   -0.57440  -0.55365  -0.54854  -0.52664  -0.51179
 Alpha  occ. eigenvalues --   -0.50634  -0.50199  -0.47852  -0.46838  -0.46277
 Alpha  occ. eigenvalues --   -0.45031  -0.44728  -0.44132  -0.43230  -0.43173
 Alpha  occ. eigenvalues --   -0.42612  -0.41793  -0.41035  -0.40190  -0.39819
 Alpha  occ. eigenvalues --   -0.39459  -0.38868  -0.38567  -0.38003  -0.37930
 Alpha  occ. eigenvalues --   -0.37358  -0.36897  -0.36511  -0.35909  -0.35190
 Alpha  occ. eigenvalues --   -0.34523  -0.33800  -0.33150  -0.33084  -0.32159
 Alpha  occ. eigenvalues --   -0.30848  -0.30647  -0.30304  -0.27893  -0.27605
 Alpha  occ. eigenvalues --   -0.24541  -0.23006  -0.22172
 Alpha virt. eigenvalues --   -0.00635  -0.00148   0.00088   0.00722   0.01431
 Alpha virt. eigenvalues --    0.01695   0.01827   0.02752   0.03242   0.03375
 Alpha virt. eigenvalues --    0.03975   0.04520   0.04848   0.05038   0.05210

 Mulliken atomic charges:
              1
     1  C    0.407659
     2  C   -0.326183
     3  H    0.153481
     4  H    0.158490
     5  C   -0.430985
     6  H    0.162620
     7  C   -0.102104
     8  H    0.145684
     9  C    0.465514
    10  H    0.160331
    11  C   -0.424207
    12  H    0.158267
    13  C    0.485619
    14  C    0.076291
    15  C    0.319675
    16  C   -0.519954
    17  C   -0.855857
    18  C   -0.108299
    19  H    0.149591
    20  H    0.150749
    21  O   -0.619217
    22  H    0.456199
    23  O   -0.600831
    24  H    0.448651
    25  O   -0.649877
    26  H    0.423025
    27  C   -0.331175
    28  H    0.163758
    29  H    0.159583
    30  H    0.168393
    31  O   -0.572915
    32  H    0.395917
    33  H    0.154948
    34  C    0.532335
    35  C   -0.618929
    36  H    0.145929
    37  H    0.141410
    38  C   -0.619029
    39  H    0.173743
    40  H    0.153217
    41  H    0.170066
    42  C   -0.085239
    43  H    0.152153
    44  H    0.151871
    45  C   -0.588235
    46  H    0.152388
    47  H    0.157790
    48  H    0.157689
 Sum of Mulliken atomic charges =   0.00000

 Dipole moment (field-independent basis, Debye):
    X=             -6.7792    Y=              1.9997    Z=              0.2451  Tot=              7.0722
 Quadrupole moment (field-independent basis, Debye-Ang):
   XX=           -132.4958   YY=           -143.9904   ZZ=           -118.0499
   XY=              7.7161   XZ=              5.4143   YZ=             -0.3180

 Normal termination of Gaussian 09 at Fri Dec 23 14:36:37 2022.
