 Gaussian 09, Revision C.01,

 ------------------------------------------------
 # mPW1PW91/6-31+G** scrf=(PCM,solvent=water) nmr
 ------------------------------------------------

 99/9=1/99;
 -------
 comment
 -------
 Charge =  0 Multiplicity = 1

 SCF Done:  E(RmPW1PW91) =  -1002.30528303     A.U. after   14 cycles

      1  C    Isotropic =   122.9540   Anisotropy =    42.6528

      2  C    Isotropic =   161.1957   Anisotropy =    25.6299

      3  H    Isotropic =    29.8585   Anisotropy =     9.2555

      4  H    Isotropic =    29.4892   Anisotropy =     6.1572

      5  C    Isotropic =   167.7952   Anisotropy =    23.6773

      6  H    Isotropic =    29.2332   Anisotropy =     8.3070

      7  C    Isotropic =   149.0510   Anisotropy =    21.9568

      8  H    Isotropic =    28.2441   Anisotropy =     5.8691

      9  C    Isotropic =   149.2145   Anisotropy =    30.8883

     10  H    Isotropic =    27.8662   Anisotropy =     6.2531

     11  C    Isotropic =   121.9216   Anisotropy =    36.9567

     12  H    Isotropic =    26.4348   Anisotropy =     3.8335

     13  C    Isotropic =    89.9172   Anisotropy =   121.0405

     14  C    Isotropic =    50.2113   Anisotropy =   190.6644

     15  C    Isotropic =    43.3815   Anisotropy =   124.6642

     16  C    Isotropic =    43.5930   Anisotropy =   121.1274

     17  C    Isotropic =    89.3250   Anisotropy =    98.3070

     18  C    Isotropic =    90.6384   Anisotropy =    99.2921

     19  H    Isotropic =    25.2004   Anisotropy =     7.5682

     20  H    Isotropic =    25.1322   Anisotropy =     7.2191

     21  O    Isotropic =   227.6583   Anisotropy =    47.0449

     22  H    Isotropic =    26.6080   Anisotropy =    15.3598

     23  O    Isotropic =   226.6005   Anisotropy =    54.7148

     24  H    Isotropic =    26.5486   Anisotropy =    15.6249

     25  O    Isotropic =   292.1625   Anisotropy =    21.3660

     26  H    Isotropic =    29.5249   Anisotropy =    17.4651

     27  C    Isotropic =   167.3531   Anisotropy =    46.1191

     28  H    Isotropic =    30.6450   Anisotropy =     9.6680

     29  H    Isotropic =    29.8036   Anisotropy =     8.4780

     30  H    Isotropic =    30.4515   Anisotropy =     9.2342

     31  O    Isotropic =   287.4221   Anisotropy =    35.4559

     32  H    Isotropic =    29.0155   Anisotropy =    14.4002

     33  H    Isotropic =    30.1512   Anisotropy =     9.4188

     34  C    Isotropic =    43.6645   Anisotropy =   181.1599

     35  C    Isotropic =    84.7661   Anisotropy =    98.0935

     36  H    Isotropic =    26.7154   Anisotropy =     5.8497

     37  H    Isotropic =    27.1877   Anisotropy =     7.8082

     38  C    Isotropic =   170.7268   Anisotropy =    26.6548

     39  H    Isotropic =    29.5650   Anisotropy =     7.6583

     40  H    Isotropic =    29.7334   Anisotropy =     8.2057

     41  H    Isotropic =    29.6886   Anisotropy =     3.3965

     42  C    Isotropic =   164.0487   Anisotropy =    29.8621

     43  H    Isotropic =    29.1819   Anisotropy =     7.3653

     44  H    Isotropic =    29.3229   Anisotropy =     7.6573

     45  C    Isotropic =   178.1984   Anisotropy =    29.4000

     46  H    Isotropic =    30.2273   Anisotropy =    12.1306

     47  H    Isotropic =    30.6278   Anisotropy =     7.2231

     48  H    Isotropic =    30.6368   Anisotropy =     7.4245

 Normal termination of Gaussian 09 at Fri Dec 23 15:16:35 2022.
 Gaussian 09:  EM64L-G09RevC.01 23-Sep-2011

 ----------------------------------------------------------------------
 # B3LYP/6-31+G** geom=allcheck test scrf=(pcm,solvent=water,smd,dovacu
 um)
 ----------------------------------------------------------------------

 Structure from the checkpoint file:  04_RSSR_THC_004_optB_NMR.chk
 -------
 comment
 -------
 Charge =  0 Multiplicity = 1

                         Standard orientation:
 ---------------------------------------------------------------------
 Center     Atomic      Atomic             Coordinates (Angstroms)
 Number     Number       Type             X           Y           Z
 ---------------------------------------------------------------------
      1          6           0        3.248512   -0.744969   -0.078042
      2          6           0        3.621751    0.702456    0.250889
      3          1           0        4.623339    0.733087    0.699527
      4          1           0        3.678754    1.289295   -0.670570
      5          6           0        2.653728    1.359972    1.234985
      6          1           0        2.800705    0.891118    2.217700
      7          6           0        1.161140    1.232292    0.865198
      8          1           0        0.639216    1.437388    1.813483
      9          6           0        0.795579   -0.240024    0.494595
     10          1           0        0.979757   -0.835663    1.402348
     11          6           0        1.771968   -0.862539   -0.536517
     12          1           0        1.686923   -0.403322   -1.522594
     13          6           0       -0.710187   -0.412683    0.238143
     14          6           0       -3.527402   -0.680456   -0.097391
     15          6           0       -1.582848   -0.526634    1.338137
     16          6           0       -1.298989   -0.421351   -1.033950
     17          6           0       -2.682950   -0.554000   -1.204499
     18          6           0       -2.965706   -0.659128    1.181085
     19          1           0       -3.114415   -0.563052   -2.202177
     20          1           0       -3.612975   -0.740905    2.049907
     21          8           0       -0.520595   -0.306048   -2.150475
     22          1           0       -1.092536   -0.120304   -2.913931
     23          8           0       -1.061892   -0.498809    2.605058
     24          1           0       -1.776774   -0.628270    3.248496
     25          8           0        1.485334   -2.269430   -0.683305
     26          1           0        0.586575   -2.310484   -1.061047
     27          6           0        4.206450   -1.304606   -1.137157
     28          1           0        4.117388   -0.764358   -2.085231
     29          1           0        4.019225   -2.367814   -1.324031
     30          1           0        5.245580   -1.233931   -0.795231
     31          8           0        3.433110   -1.541461    1.102897
     32          1           0        2.948504   -2.372356    0.917013
     33          1           0        2.927147    2.414536    1.365360
     34          6           0        0.673011    2.322479   -0.100962
     35          6           0       -0.423648    3.045231    0.196602
     36          1           0       -0.789636    3.829136   -0.458826
     37          1           0       -0.993546    2.864813    1.103679
     38          6           0        1.424060    2.614928   -1.367964
     39          1           0        2.395199    3.065232   -1.143790
     40          1           0        0.885089    3.324362   -2.006431
     41          1           0        1.574748    1.713074   -1.962925
     42          6           0       -5.018370   -0.803474   -0.278830
     43          1           0       -5.233707   -1.343980   -1.208631
     44          1           0       -5.439899   -1.412768    0.529956
     45          6           0       -5.698312    0.556876   -0.305499
     46          1           0       -6.778275    0.437575   -0.437925
     47          1           0       -5.321526    1.173408   -1.128676
     48          1           0       -5.529239    1.103932    0.628227
 ---------------------------------------------------------------------

 SCF Done:  E(RB3LYP) =  -1002.54769317     A.U. after   14 cycles

 The electronic state is 1-A.
 Alpha  occ. eigenvalues --  -19.18783 -19.18701 -19.16459 -19.15594 -10.25541
 Alpha  occ. eigenvalues --  -10.25497 -10.24202 -10.23434 -10.19856 -10.19684
 Alpha  occ. eigenvalues --  -10.19591 -10.19571 -10.19009 -10.18164 -10.18005
 Alpha  occ. eigenvalues --  -10.17958 -10.17515 -10.17470 -10.17113 -10.17085
 Alpha  occ. eigenvalues --  -10.16854 -10.16705  -1.06799  -1.06494  -1.04057
 Alpha  occ. eigenvalues --   -1.01463  -0.85749  -0.83403  -0.79225  -0.78765
 Alpha  occ. eigenvalues --   -0.75403  -0.73856  -0.73219  -0.71206  -0.68480
 Alpha  occ. eigenvalues --   -0.66890  -0.64270  -0.63699  -0.61042  -0.59544
 Alpha  occ. eigenvalues --   -0.57346  -0.55883  -0.55298  -0.52797  -0.51614
 Alpha  occ. eigenvalues --   -0.50749  -0.49241  -0.48249  -0.46848  -0.45709
 Alpha  occ. eigenvalues --   -0.45158  -0.44438  -0.43627  -0.43408  -0.42755
 Alpha  occ. eigenvalues --   -0.41990  -0.41610  -0.41290  -0.40421  -0.39923
 Alpha  occ. eigenvalues --   -0.39462  -0.39126  -0.38409  -0.38189  -0.37982
 Alpha  occ. eigenvalues --   -0.37083  -0.36921  -0.36597  -0.36149  -0.35324
 Alpha  occ. eigenvalues --   -0.34468  -0.33971  -0.33131  -0.33030  -0.31862
 Alpha  occ. eigenvalues --   -0.31011  -0.30769  -0.29860  -0.28302  -0.26983
 Alpha  occ. eigenvalues --   -0.24480  -0.22970  -0.22136
 Alpha virt. eigenvalues --   -0.00557  -0.00123  -0.00029   0.00737   0.01417
 Alpha virt. eigenvalues --    0.01729   0.01847   0.02615   0.03117   0.03369
 Alpha virt. eigenvalues --    0.03915   0.04539   0.04822   0.05027   0.05320

 Mulliken atomic charges:
              1
     1  C    0.402689
     2  C   -0.327328
     3  H    0.155991
     4  H    0.166374
     5  C   -0.586565
     6  H    0.158173
     7  C    0.288318
     8  H    0.145474
     9  C    0.014499
    10  H    0.157540
    11  C   -0.127312
    12  H    0.162012
    13  C    0.717941
    14  C   -0.071753
    15  C    0.607168
    16  C   -1.430711
    17  C   -0.307743
    18  C   -0.177215
    19  H    0.148612
    20  H    0.150652
    21  O   -0.591610
    22  H    0.454348
    23  O   -0.591995
    24  H    0.450904
    25  O   -0.679808
    26  H    0.424221
    27  C   -0.336563
    28  H    0.161080
    29  H    0.160296
    30  H    0.160837
    31  O   -0.622877
    32  H    0.401834
    33  H    0.151662
    34  C    0.453962
    35  C   -0.572785
    36  H    0.146078
    37  H    0.141441
    38  C   -0.625302
    39  H    0.175356
    40  H    0.153606
    41  H    0.170621
    42  C    0.005288
    43  H    0.151870
    44  H    0.152133
    45  C   -0.611094
    46  H    0.152736
    47  H    0.158282
    48  H    0.158662
 Sum of Mulliken atomic charges =   0.00000

 Dipole moment (field-independent basis, Debye):
    X=             -6.0894    Y=              1.4418    Z=             -2.9930  Tot=              6.9367
 Quadrupole moment (field-independent basis, Debye-Ang):
   XX=           -127.2346   YY=           -142.0000   ZZ=           -120.9684
   XY=             12.1861   XZ=             -8.3589   YZ=             -1.7893

 Normal termination of Gaussian 09 at Fri Dec 23 15:49:53 2022.
