 Gaussian 09, Revision C.01,

 ------------------------------------------------
 # mPW1PW91/6-31+G** scrf=(PCM,solvent=water) nmr
 ------------------------------------------------

 99/9=1/99;
 -------
 comment
 -------
 Charge =  0 Multiplicity = 1

 SCF Done:  E(RmPW1PW91) =  -1002.30214556     A.U. after   14 cycles

      1  C    Isotropic =   122.0616   Anisotropy =    39.1768

      2  C    Isotropic =   160.0112   Anisotropy =    32.0192

      3  H    Isotropic =    30.1318   Anisotropy =     9.1160

      4  H    Isotropic =    29.3743   Anisotropy =     6.1356

      5  C    Isotropic =   167.3820   Anisotropy =    23.2508

      6  H    Isotropic =    29.2975   Anisotropy =     7.9188

      7  C    Isotropic =   153.5432   Anisotropy =    20.6883

      8  H    Isotropic =    27.9667   Anisotropy =     7.2775

      9  C    Isotropic =   148.7309   Anisotropy =    27.6039

     10  H    Isotropic =    28.0254   Anisotropy =     5.0274

     11  C    Isotropic =   121.4756   Anisotropy =    40.2331

     12  H    Isotropic =    26.5934   Anisotropy =     1.7228

     13  C    Isotropic =    84.7138   Anisotropy =   126.6016

     14  C    Isotropic =    50.4952   Anisotropy =   188.8428

     15  C    Isotropic =    44.3908   Anisotropy =   123.2683

     16  C    Isotropic =    42.7085   Anisotropy =   121.6203

     17  C    Isotropic =    85.2279   Anisotropy =   110.3438

     18  C    Isotropic =    90.2804   Anisotropy =    98.5645

     19  H    Isotropic =    24.8265   Anisotropy =     7.9693

     20  H    Isotropic =    25.1158   Anisotropy =     7.4602

     21  O    Isotropic =   237.0364   Anisotropy =    59.9992

     22  H    Isotropic =    23.8389   Anisotropy =    23.8807

     23  O    Isotropic =   225.3670   Anisotropy =    46.8287

     24  H    Isotropic =    26.4428   Anisotropy =    15.4073

     25  O    Isotropic =   289.6103   Anisotropy =    49.4427

     26  H    Isotropic =    28.3386   Anisotropy =    15.2293

     27  C    Isotropic =   167.5196   Anisotropy =    46.1276

     28  H    Isotropic =    30.3821   Anisotropy =     9.7879

     29  H    Isotropic =    29.6214   Anisotropy =     8.1350

     30  H    Isotropic =    30.6389   Anisotropy =     9.1400

     31  O    Isotropic =   272.2686   Anisotropy =    77.1637

     32  H    Isotropic =    30.6154   Anisotropy =    17.9788

     33  H    Isotropic =    30.1538   Anisotropy =     9.8536

     34  C    Isotropic =    42.5096   Anisotropy =   182.7520

     35  C    Isotropic =    87.8368   Anisotropy =   109.3096

     36  H    Isotropic =    26.4619   Anisotropy =     5.0805

     37  H    Isotropic =    26.5665   Anisotropy =     6.0791

     38  C    Isotropic =   166.1911   Anisotropy =    44.0706

     39  H    Isotropic =    30.3244   Anisotropy =     6.2020

     40  H    Isotropic =    30.1917   Anisotropy =     8.7484

     41  H    Isotropic =    29.8380   Anisotropy =     8.2249

     42  C    Isotropic =   164.9555   Anisotropy =    28.3232

     43  H    Isotropic =    29.2338   Anisotropy =     7.2282

     44  H    Isotropic =    29.2264   Anisotropy =     7.3639

     45  C    Isotropic =   177.0003   Anisotropy =    30.5416

     46  H    Isotropic =    30.2849   Anisotropy =    12.0239

     47  H    Isotropic =    30.6081   Anisotropy =     7.4880

     48  H    Isotropic =    30.5978   Anisotropy =     7.3960

 Normal termination of Gaussian 09 at Fri Dec 23 15:09:20 2022.
 Gaussian 09:  EM64L-G09RevC.01 23-Sep-2011

 ----------------------------------------------------------------------
 # B3LYP/6-31+G** geom=allcheck test scrf=(pcm,solvent=water,smd,dovacu
 um)
 ----------------------------------------------------------------------

 Structure from the checkpoint file:  04_RSSR_THC_005_optB_NMR.chk
 -------
 comment
 -------
 Charge =  0 Multiplicity = 1

                         Standard orientation:
 ---------------------------------------------------------------------
 Center     Atomic      Atomic             Coordinates (Angstroms)
 Number     Number       Type             X           Y           Z
 ---------------------------------------------------------------------
      1          6           0        3.181157   -0.920619    0.199128
      2          6           0        3.695854    0.513939    0.044906
      3          1           0        4.695230    0.600888    0.490634
      4          1           0        3.808624    0.765880   -1.014597
      5          6           0        2.790984    1.536084    0.725897
      6          1           0        2.881981    1.403745    1.812669
      7          6           0        1.297981    1.426779    0.352665
      8          1           0        0.801748    2.025190    1.128442
      9          6           0        0.771465   -0.040997    0.514762
     10          1           0        0.879869   -0.302694    1.579416
     11          6           0        1.697029   -1.038565   -0.228462
     12          1           0        1.631035   -0.903434   -1.310707
     13          6           0       -0.746471   -0.149086    0.272316
     14          6           0       -3.575080   -0.091718   -0.151236
     15          6           0       -1.625722    0.513248    1.155194
     16          6           0       -1.353436   -0.850052   -0.780688
     17          6           0       -2.733526   -0.803785   -1.007213
     18          6           0       -3.010766    0.550521    0.951600
     19          1           0       -3.145998   -1.354094   -1.850133
     20          1           0       -3.657011    1.079473    1.646165
     21          8           0       -0.671498   -1.675031   -1.630370
     22          1           0       -0.069661   -2.207025   -1.062626
     23          8           0       -1.113084    1.133205    2.266412
     24          1           0       -1.846380    1.495616    2.789250
     25          8           0        1.249500   -2.384846    0.050079
     26          1           0        1.566795   -2.558165    0.962593
     27          6           0        4.064854   -1.888273   -0.597207
     28          1           0        4.011556   -1.688261   -1.672278
     29          1           0        3.774951   -2.930016   -0.421196
     30          1           0        5.111885   -1.805834   -0.283297
     31          8           0        3.265592   -1.313306    1.580992
     32          1           0        4.195275   -1.224877    1.857692
     33          1           0        3.163429    2.546709    0.515676
     34          6           0        0.963208    2.138768   -0.964800
     35          6           0        1.385492    1.779417   -2.188507
     36          1           0        1.089179    2.341091   -3.070762
     37          1           0        2.019611    0.924480   -2.375817
     38          6           0        0.075608    3.351974   -0.817956
     39          1           0       -0.888092    3.072426   -0.381660
     40          1           0       -0.126527    3.838647   -1.778109
     41          1           0        0.552840    4.092363   -0.167429
     42          6           0       -5.062384   -0.066204   -0.384747
     43          1           0       -5.473863    0.888354   -0.034617
     44          1           0       -5.267710   -0.107552   -1.461429
     45          6           0       -5.766394   -1.217478    0.317102
     46          1           0       -6.843878   -1.172712    0.129673
     47          1           0       -5.608530   -1.178768    1.400273
     48          1           0       -5.399554   -2.185302   -0.041264
 ---------------------------------------------------------------------

 SCF Done:  E(RB3LYP) =  -1002.54246803     A.U. after   14 cycles

 The electronic state is 1-A.
 Alpha  occ. eigenvalues --  -19.18651 -19.17275 -19.16972 -19.16171 -10.25436
 Alpha  occ. eigenvalues --  -10.24798 -10.24670 -10.24262 -10.20134 -10.19715
 Alpha  occ. eigenvalues --  -10.19657 -10.19573 -10.18928 -10.18073 -10.17998
 Alpha  occ. eigenvalues --  -10.17604 -10.17510 -10.17505 -10.17217 -10.17071
 Alpha  occ. eigenvalues --  -10.16956 -10.16807  -1.06431  -1.05925  -1.04354
 Alpha  occ. eigenvalues --   -1.02047  -0.85543  -0.83506  -0.79031  -0.78844
 Alpha  occ. eigenvalues --   -0.75423  -0.74106  -0.73068  -0.71144  -0.68102
 Alpha  occ. eigenvalues --   -0.67543  -0.64356  -0.62091  -0.61042  -0.60533
 Alpha  occ. eigenvalues --   -0.58825  -0.57900  -0.53776  -0.51886  -0.51008
 Alpha  occ. eigenvalues --   -0.49765  -0.49093  -0.47952  -0.47702  -0.45963
 Alpha  occ. eigenvalues --   -0.45012  -0.44951  -0.44027  -0.43120  -0.42672
 Alpha  occ. eigenvalues --   -0.42360  -0.41969  -0.41385  -0.41005  -0.40589
 Alpha  occ. eigenvalues --   -0.40171  -0.39422  -0.38600  -0.37762  -0.37217
 Alpha  occ. eigenvalues --   -0.36959  -0.36362  -0.36132  -0.35268  -0.35151
 Alpha  occ. eigenvalues --   -0.34697  -0.34470  -0.33214  -0.33108  -0.32391
 Alpha  occ. eigenvalues --   -0.31332  -0.30486  -0.29687  -0.28502  -0.27314
 Alpha  occ. eigenvalues --   -0.24588  -0.22934  -0.21998
 Alpha virt. eigenvalues --   -0.00488   0.00027   0.00306   0.00448   0.01299
 Alpha virt. eigenvalues --    0.01790   0.02007   0.02700   0.03280   0.03477
 Alpha virt. eigenvalues --    0.04288   0.04481   0.04788   0.04939   0.05330

 Mulliken atomic charges:
              1
     1  C    0.207368
     2  C   -0.373217
     3  H    0.157765
     4  H    0.164833
     5  C   -0.471941
     6  H    0.155178
     7  C    0.258422
     8  H    0.148027
     9  C    0.067328
    10  H    0.163086
    11  C    0.141584
    12  H    0.182361
    13  C    0.461064
    14  C   -0.017689
    15  C    0.293425
    16  C   -0.361546
    17  C   -0.913358
    18  C    0.032258
    19  H    0.147572
    20  H    0.150571
    21  O   -0.613155
    22  H    0.446522
    23  O   -0.618661
    24  H    0.450245
    25  O   -0.648046
    26  H    0.416224
    27  C   -0.272066
    28  H    0.166685
    29  H    0.164683
    30  H    0.163653
    31  O   -0.681234
    32  H    0.419395
    33  H    0.150258
    34  C    0.225580
    35  C   -0.529174
    36  H    0.143622
    37  H    0.146475
    38  C   -0.710909
    39  H    0.172953
    40  H    0.153765
    41  H    0.169656
    42  C   -0.089674
    43  H    0.151065
    44  H    0.151769
    45  C   -0.588979
    46  H    0.151670
    47  H    0.157363
    48  H    0.157224
 Sum of Mulliken atomic charges =   0.00000

 Dipole moment (field-independent basis, Debye):
    X=              2.2800    Y=              2.7448    Z=              3.6269  Tot=              5.0879
 Quadrupole moment (field-independent basis, Debye-Ang):
   XX=           -102.2075   YY=           -137.0447   ZZ=           -135.1157
   XY=             -7.8897   XZ=             -4.0139   YZ=              1.0049

 Normal termination of Gaussian 09 at Fri Dec 23 15:45:32 2022.
