 Gaussian 09, Revision C.01,

 ------------------------------------------------
 # mPW1PW91/6-31+G** scrf=(PCM,solvent=water) nmr
 ------------------------------------------------

 99/9=1/99;
 -------
 comment
 -------
 Charge =  0 Multiplicity = 1

 SCF Done:  E(RmPW1PW91) =  -1002.30228189     A.U. after   14 cycles

      1  C    Isotropic =   122.8620   Anisotropy =    41.4242

      2  C    Isotropic =   157.2661   Anisotropy =    25.6934

      3  H    Isotropic =    30.0502   Anisotropy =     9.0326

      4  H    Isotropic =    29.4771   Anisotropy =     6.0359

      5  C    Isotropic =   163.7012   Anisotropy =    30.1921

      6  H    Isotropic =    29.0367   Anisotropy =     7.5716

      7  C    Isotropic =   149.0672   Anisotropy =    24.3788

      8  H    Isotropic =    27.6533   Anisotropy =     7.1928

      9  C    Isotropic =   150.2595   Anisotropy =    30.1438

     10  H    Isotropic =    27.9469   Anisotropy =     4.5238

     11  C    Isotropic =   121.2851   Anisotropy =    42.4261

     12  H    Isotropic =    26.5719   Anisotropy =     2.5235

     13  C    Isotropic =    86.7325   Anisotropy =   120.1149

     14  C    Isotropic =    51.1136   Anisotropy =   190.0996

     15  C    Isotropic =    43.1907   Anisotropy =   124.3359

     16  C    Isotropic =    42.6574   Anisotropy =   120.6917

     17  C    Isotropic =    83.5127   Anisotropy =   110.5123

     18  C    Isotropic =    89.9578   Anisotropy =    97.9053

     19  H    Isotropic =    24.8770   Anisotropy =     7.5263

     20  H    Isotropic =    25.2156   Anisotropy =     7.0068

     21  O    Isotropic =   239.1873   Anisotropy =    61.0279

     22  H    Isotropic =    23.5486   Anisotropy =    24.7550

     23  O    Isotropic =   224.3625   Anisotropy =    45.7403

     24  H    Isotropic =    26.5405   Anisotropy =    15.2743

     25  O    Isotropic =   289.7376   Anisotropy =    53.3781

     26  H    Isotropic =    28.2328   Anisotropy =    15.2473

     27  C    Isotropic =   166.1321   Anisotropy =    47.2745

     28  H    Isotropic =    30.4160   Anisotropy =     9.6649

     29  H    Isotropic =    29.6090   Anisotropy =     8.1178

     30  H    Isotropic =    30.6657   Anisotropy =     9.1142

     31  O    Isotropic =   271.2586   Anisotropy =    81.9892

     32  H    Isotropic =    30.6501   Anisotropy =    18.0256

     33  H    Isotropic =    30.0848   Anisotropy =     9.1778

     34  C    Isotropic =    42.1066   Anisotropy =   184.9685

     35  C    Isotropic =    85.3424   Anisotropy =    94.9845

     36  H    Isotropic =    26.6661   Anisotropy =     6.7992

     37  H    Isotropic =    26.7466   Anisotropy =     7.8644

     38  C    Isotropic =   171.0046   Anisotropy =    29.4986

     39  H    Isotropic =    29.7099   Anisotropy =     5.6580

     40  H    Isotropic =    29.7146   Anisotropy =     9.0228

     41  H    Isotropic =    29.4960   Anisotropy =     5.7540

     42  C    Isotropic =   163.7597   Anisotropy =    29.1730

     43  H    Isotropic =    29.1024   Anisotropy =     7.3184

     44  H    Isotropic =    29.2211   Anisotropy =     7.4558

     45  C    Isotropic =   177.3918   Anisotropy =    30.2960

     46  H    Isotropic =    30.3012   Anisotropy =    12.0356

     47  H    Isotropic =    30.6409   Anisotropy =     7.1258

     48  H    Isotropic =    30.6424   Anisotropy =     7.0665

 Normal termination of Gaussian 09 at Fri Dec 23 15:09:37 2022.
 Gaussian 09:  EM64L-G09RevC.01 23-Sep-2011

 ----------------------------------------------------------------------
 # B3LYP/6-31+G** geom=allcheck test scrf=(pcm,solvent=water,smd,dovacu
 um)
 ----------------------------------------------------------------------

 Structure from the checkpoint file:  04_RSSR_THC_009_optB_NMR.chk
 -------
 comment
 -------
 Charge =  0 Multiplicity = 1

                         Standard orientation:
 ---------------------------------------------------------------------
 Center     Atomic      Atomic             Coordinates (Angstroms)
 Number     Number       Type             X           Y           Z
 ---------------------------------------------------------------------
      1          6           0        3.264113   -0.649759    0.077719
      2          6           0        3.590341    0.828623   -0.146055
      3          1           0        4.606081    1.043701    0.210333
      4          1           0        3.582861    1.063230   -1.214813
      5          6           0        2.631348    1.753443    0.593727
      6          1           0        2.824958    1.655595    1.670817
      7          6           0        1.133834    1.469141    0.349378
      8          1           0        0.644716    2.007251    1.172603
      9          6           0        0.792895   -0.047881    0.562786
     10          1           0        1.006911   -0.273535    1.619907
     11          6           0        1.776896   -0.948374   -0.232110
     12          1           0        1.620947   -0.847859   -1.309136
     13          6           0       -0.716340   -0.338915    0.439374
     14          6           0       -3.555780   -0.635072    0.231986
     15          6           0       -1.604764    0.262689    1.356002
     16          6           0       -1.309815   -1.158278   -0.533570
     17          6           0       -2.698100   -1.281969   -0.658391
     18          6           0       -2.995694    0.132357    1.253781
     19          1           0       -3.100584   -1.909770   -1.450405
     20          1           0       -3.650034    0.626512    1.966179
     21          8           0       -0.597015   -1.933290   -1.405079
     22          1           0        0.109977   -2.361014   -0.870822
     23          8           0       -1.095105    0.984294    2.405462
     24          1           0       -1.831249    1.317177    2.943444
     25          8           0        1.515159   -2.330151    0.103496
     26          1           0        1.919485   -2.441601    0.991183
     27          6           0        4.193861   -1.530499   -0.765758
     28          1           0        4.037516   -1.368568   -1.837192
     29          1           0        4.042835   -2.593466   -0.547721
     30          1           0        5.244325   -1.318232   -0.535342
     31          8           0        3.496283   -0.990545    1.455860
     32          1           0        4.426299   -0.784740    1.659616
     33          1           0        2.869430    2.794980    0.343144
     34          6           0        0.617201    2.148331   -0.927705
     35          6           0       -0.034611    3.323912   -0.843075
     36          1           0       -0.426558    3.825491   -1.722820
     37          1           0       -0.205946    3.814297    0.110517
     38          6           0        0.805343    1.513409   -2.276357
     39          1           0        1.856074    1.295711   -2.473356
     40          1           0        0.467135    2.170612   -3.085946
     41          1           0        0.226658    0.591488   -2.360439
     42          6           0       -5.049185   -0.759921    0.086765
     43          1           0       -5.300040   -1.744568   -0.326284
     44          1           0       -5.521437   -0.717428    1.075815
     45          6           0       -5.622456    0.331880   -0.803651
     46          1           0       -6.707473    0.217550   -0.891738
     47          1           0       -5.193780    0.289122   -1.810693
     48          1           0       -5.418197    1.326895   -0.393835
 ---------------------------------------------------------------------

 SCF Done:  E(RB3LYP) =  -1002.54218349     A.U. after   14 cycles

 The electronic state is 1-A.
 Alpha  occ. eigenvalues --  -19.18673 -19.17296 -19.16868 -19.16196 -10.25458
 Alpha  occ. eigenvalues --  -10.24802 -10.24671 -10.24278 -10.20178 -10.19764
 Alpha  occ. eigenvalues --  -10.19730 -10.19569 -10.18948 -10.18068 -10.18004
 Alpha  occ. eigenvalues --  -10.17543 -10.17506 -10.17499 -10.17099 -10.17071
 Alpha  occ. eigenvalues --  -10.16966 -10.16894  -1.06459  -1.05911  -1.04338
 Alpha  occ. eigenvalues --   -1.02067  -0.85538  -0.83513  -0.79048  -0.78926
 Alpha  occ. eigenvalues --   -0.75438  -0.74163  -0.73061  -0.71151  -0.68719
 Alpha  occ. eigenvalues --   -0.66995  -0.64331  -0.62094  -0.61038  -0.60478
 Alpha  occ. eigenvalues --   -0.58718  -0.57898  -0.53791  -0.51973  -0.51094
 Alpha  occ. eigenvalues --   -0.49750  -0.49169  -0.47925  -0.47673  -0.46032
 Alpha  occ. eigenvalues --   -0.45099  -0.44731  -0.44346  -0.43412  -0.42571
 Alpha  occ. eigenvalues --   -0.42012  -0.41932  -0.41733  -0.40772  -0.40697
 Alpha  occ. eigenvalues --   -0.40170  -0.39631  -0.38258  -0.37602  -0.37312
 Alpha  occ. eigenvalues --   -0.36887  -0.36539  -0.36216  -0.35545  -0.34992
 Alpha  occ. eigenvalues --   -0.34649  -0.34140  -0.33320  -0.32989  -0.32492
 Alpha  occ. eigenvalues --   -0.31178  -0.30739  -0.29950  -0.28587  -0.27302
 Alpha  occ. eigenvalues --   -0.24403  -0.22918  -0.22011
 Alpha virt. eigenvalues --   -0.00516  -0.00047   0.00236   0.00383   0.01489
 Alpha virt. eigenvalues --    0.01770   0.01959   0.02823   0.03357   0.03473
 Alpha virt. eigenvalues --    0.04274   0.04527   0.04861   0.04999   0.05210

 Mulliken atomic charges:
              1
     1  C    0.207199
     2  C   -0.351103
     3  H    0.158093
     4  H    0.163041
     5  C   -0.412272
     6  H    0.156628
     7  C    0.047552
     8  H    0.145670
     9  C    0.086689
    10  H    0.167052
    11  C   -0.030360
    12  H    0.188675
    13  C    0.488826
    14  C   -0.054978
    15  C    0.340173
    16  C   -0.295368
    17  C   -0.832784
    18  C   -0.033520
    19  H    0.147373
    20  H    0.149825
    21  O   -0.624231
    22  H    0.450647
    23  O   -0.606991
    24  H    0.447935
    25  O   -0.652956
    26  H    0.417548
    27  C   -0.292075
    28  H    0.166637
    29  H    0.164746
    30  H    0.163604
    31  O   -0.680116
    32  H    0.419529
    33  H    0.150876
    34  C    0.377553
    35  C   -0.551896
    36  H    0.147444
    37  H    0.141603
    38  C   -0.711783
    39  H    0.169583
    40  H    0.153378
    41  H    0.179372
    42  C   -0.029970
    43  H    0.151557
    44  H    0.150865
    45  C   -0.606783
    46  H    0.152445
    47  H    0.157417
    48  H    0.157650
 Sum of Mulliken atomic charges =   0.00000

 Dipole moment (field-independent basis, Debye):
    X=              2.8707    Y=              2.3381    Z=              2.4048  Tot=              4.4148
 Quadrupole moment (field-independent basis, Debye-Ang):
   XX=           -101.4413   YY=           -142.7223   ZZ=           -131.8821
   XY=             -3.2583   XZ=             -6.8441   YZ=              0.3750

 Normal termination of Gaussian 09 at Fri Dec 23 15:44:51 2022.
