 Gaussian 09, Revision C.01,

 ------------------------------------------------
 # mPW1PW91/6-31+G** scrf=(PCM,solvent=water) nmr
 ------------------------------------------------

 99/9=1/99;
 -------
 comment
 -------
 Charge =  0 Multiplicity = 1

 SCF Done:  E(RmPW1PW91) =  -1002.30393609     A.U. after   14 cycles

      1  C    Isotropic =   122.6443   Anisotropy =    42.4519

      2  C    Isotropic =   162.8933   Anisotropy =    29.2801

      3  H    Isotropic =    29.8876   Anisotropy =     9.4367

      4  H    Isotropic =    29.5058   Anisotropy =     6.2745

      5  C    Isotropic =   167.1988   Anisotropy =    22.4659

      6  H    Isotropic =    29.3591   Anisotropy =     8.1105

      7  C    Isotropic =   152.5548   Anisotropy =    18.6985

      8  H    Isotropic =    28.3745   Anisotropy =     6.0175

      9  C    Isotropic =   149.6449   Anisotropy =    28.0306

     10  H    Isotropic =    27.9733   Anisotropy =     5.8739

     11  C    Isotropic =   122.0387   Anisotropy =    35.5257

     12  H    Isotropic =    26.3698   Anisotropy =     3.5453

     13  C    Isotropic =    90.9364   Anisotropy =   119.5634

     14  C    Isotropic =    49.8094   Anisotropy =   190.1131

     15  C    Isotropic =    41.8041   Anisotropy =   127.3289

     16  C    Isotropic =    43.6818   Anisotropy =   119.2727

     17  C    Isotropic =    89.6121   Anisotropy =    97.1786

     18  C    Isotropic =    90.3433   Anisotropy =   100.2803

     19  H    Isotropic =    25.1505   Anisotropy =     7.8122

     20  H    Isotropic =    24.9781   Anisotropy =     7.1342

     21  O    Isotropic =   229.4265   Anisotropy =    53.5686

     22  H    Isotropic =    26.5803   Anisotropy =    15.3582

     23  O    Isotropic =   225.5585   Anisotropy =    47.3734

     24  H    Isotropic =    26.4206   Anisotropy =    15.0761

     25  O    Isotropic =   296.2573   Anisotropy =    25.1096

     26  H    Isotropic =    29.2493   Anisotropy =    18.2334

     27  C    Isotropic =   166.9470   Anisotropy =    46.2660

     28  H    Isotropic =    30.5569   Anisotropy =     9.6888

     29  H    Isotropic =    29.8181   Anisotropy =     8.2793

     30  H    Isotropic =    30.4510   Anisotropy =     9.1393

     31  O    Isotropic =   287.6406   Anisotropy =    37.4420

     32  H    Isotropic =    28.9326   Anisotropy =    14.2575

     33  H    Isotropic =    30.2848   Anisotropy =     9.5953

     34  C    Isotropic =    42.2396   Anisotropy =   181.4900

     35  C    Isotropic =    86.4092   Anisotropy =   112.8988

     36  H    Isotropic =    26.3030   Anisotropy =     5.0094

     37  H    Isotropic =    26.2842   Anisotropy =     5.9204

     38  C    Isotropic =   166.6349   Anisotropy =    43.3390

     39  H    Isotropic =    30.3819   Anisotropy =     5.5477

     40  H    Isotropic =    30.1972   Anisotropy =     8.6865

     41  H    Isotropic =    29.8267   Anisotropy =     8.4610

     42  C    Isotropic =   164.6421   Anisotropy =    28.4249

     43  H    Isotropic =    29.1594   Anisotropy =     7.3535

     44  H    Isotropic =    29.2122   Anisotropy =     7.1966

     45  C    Isotropic =   177.3698   Anisotropy =    31.2762

     46  H    Isotropic =    30.2807   Anisotropy =    12.0605

     47  H    Isotropic =    30.5734   Anisotropy =     7.6233

     48  H    Isotropic =    30.6390   Anisotropy =     7.2953

 Normal termination of Gaussian 09 at Fri Dec 23 14:54:21 2022.
 Gaussian 09:  EM64L-G09RevC.01 23-Sep-2011

 ----------------------------------------------------------------------
 # B3LYP/6-31+G** geom=allcheck test scrf=(pcm,solvent=water,smd,dovacu
 um)
 ----------------------------------------------------------------------

 Structure from the checkpoint file:  04_RSSR_THC_002_optB_NMR.chk
 -------
 comment
 -------
 Charge =  0 Multiplicity = 1

                         Standard orientation:
 ---------------------------------------------------------------------
 Center     Atomic      Atomic             Coordinates (Angstroms)
 Number     Number       Type             X           Y           Z
 ---------------------------------------------------------------------
      1          6           0        3.150934   -1.021970    0.129512
      2          6           0        3.710766    0.403754    0.138226
      3          1           0        4.705052    0.407165    0.603853
      4          1           0        3.849177    0.765241   -0.885719
      5          6           0        2.830700    1.378813    0.917046
      6          1           0        2.904271    1.128333    1.984142
      7          6           0        1.340497    1.358449    0.521828
      8          1           0        0.838395    1.866880    1.358695
      9          6           0        0.778629   -0.097430    0.504129
     10          1           0        0.879983   -0.481503    1.531466
     11          6           0        1.668085   -1.059582   -0.326387
     12          1           0        1.637916   -0.835834   -1.394452
     13          6           0       -0.738722   -0.117264    0.253353
     14          6           0       -3.568893   -0.038773   -0.087568
     15          6           0       -1.607505    0.232211    1.306727
     16          6           0       -1.338726   -0.430680   -0.973934
     17          6           0       -2.728802   -0.396497   -1.146070
     18          6           0       -2.996132    0.270016    1.147804
     19          1           0       -3.168974   -0.658999   -2.104788
     20          1           0       -3.638473    0.540658    1.981267
     21          8           0       -0.570676   -0.804567   -2.039829
     22          1           0       -1.107742   -0.748027   -2.848002
     23          8           0       -1.075245    0.547877    2.529414
     24          1           0       -1.795075    0.711879    3.159428
     25          8           0        1.204942   -2.415158   -0.150694
     26          1           0        0.318862   -2.433274   -0.560473
     27          6           0        4.026224   -1.921010   -0.752494
     28          1           0        4.004571   -1.600440   -1.799107
     29          1           0        3.703480   -2.966818   -0.702495
     30          1           0        5.066762   -1.906614   -0.407870
     31          8           0        3.235846   -1.549860    1.463423
     32          1           0        2.645615   -2.331891    1.455187
     33          1           0        3.238222    2.393021    0.819757
     34          6           0        1.039692    2.228301   -0.706197
     35          6           0        1.484703    2.006930   -1.954361
     36          1           0        1.225350    2.675689   -2.770325
     37          1           0        2.109886    1.164932   -2.218388
     38          6           0        0.166153    3.427828   -0.429394
     39          1           0       -0.805075    3.110918   -0.036346
     40          1           0       -0.020507    4.022921   -1.329679
     41          1           0        0.645000    4.082441    0.306261
     42          6           0       -5.065071   -0.020292   -0.266590
     43          1           0       -5.504357    0.751952    0.376637
     44          1           0       -5.309993    0.268226   -1.296076
     45          6           0       -5.689437   -1.370320    0.051319
     46          1           0       -6.774386   -1.327428   -0.087039
     47          1           0       -5.490844   -1.665912    1.087113
     48          1           0       -5.294617   -2.154753   -0.603254
 ---------------------------------------------------------------------

 SCF Done:  E(RB3LYP) =  -1002.54647579     A.U. after   14 cycles

 The electronic state is 1-A.
 Alpha  occ. eigenvalues --  -19.18795 -19.18692 -19.16412 -19.15587 -10.25582
 Alpha  occ. eigenvalues --  -10.25522 -10.24240 -10.23448 -10.19863 -10.19754
 Alpha  occ. eigenvalues --  -10.19701 -10.19531 -10.18911 -10.18174 -10.18038
 Alpha  occ. eigenvalues --  -10.17977 -10.17537 -10.17514 -10.17218 -10.17120
 Alpha  occ. eigenvalues --  -10.16713 -10.16709  -1.06838  -1.06512  -1.04032
 Alpha  occ. eigenvalues --   -1.01422  -0.85775  -0.83423  -0.79242  -0.78711
 Alpha  occ. eigenvalues --   -0.75382  -0.73862  -0.73229  -0.71220  -0.67896
 Alpha  occ. eigenvalues --   -0.67431  -0.64279  -0.63706  -0.61027  -0.59745
 Alpha  occ. eigenvalues --   -0.57393  -0.55815  -0.55334  -0.52864  -0.51658
 Alpha  occ. eigenvalues --   -0.50646  -0.49171  -0.48264  -0.46876  -0.45680
 Alpha  occ. eigenvalues --   -0.45128  -0.44743  -0.43239  -0.42950  -0.42716
 Alpha  occ. eigenvalues --   -0.42351  -0.41870  -0.41170  -0.40412  -0.40306
 Alpha  occ. eigenvalues --   -0.39676  -0.38968  -0.38597  -0.38154  -0.37686
 Alpha  occ. eigenvalues --   -0.37134  -0.36840  -0.36442  -0.35962  -0.35160
 Alpha  occ. eigenvalues --   -0.34857  -0.34262  -0.33160  -0.33053  -0.31976
 Alpha  occ. eigenvalues --   -0.30915  -0.30826  -0.29591  -0.28284  -0.26938
 Alpha  occ. eigenvalues --   -0.24535  -0.22924  -0.22168
 Alpha virt. eigenvalues --   -0.00604  -0.00060   0.00070   0.00642   0.01435
 Alpha virt. eigenvalues --    0.01689   0.02010   0.02746   0.03125   0.03560
 Alpha virt. eigenvalues --    0.03873   0.04509   0.04721   0.04974   0.05449

 Mulliken atomic charges:
              1
     1  C    0.434592
     2  C   -0.333839
     3  H    0.157445
     4  H    0.165811
     5  C   -0.516219
     6  H    0.154997
     7  C    0.327656
     8  H    0.145133
     9  C   -0.062301
    10  H    0.156415
    11  C   -0.021752
    12  H    0.165294
    13  C    0.717980
    14  C    0.065096
    15  C    0.433737
    16  C   -0.773393
    17  C   -0.922051
    18  C   -0.063099
    19  H    0.148985
    20  H    0.150937
    21  O   -0.589335
    22  H    0.455921
    23  O   -0.600055
    24  H    0.450318
    25  O   -0.685749
    26  H    0.424541
    27  C   -0.336902
    28  H    0.161343
    29  H    0.160134
    30  H    0.161200
    31  O   -0.630877
    32  H    0.402250
    33  H    0.148645
    34  C    0.264815
    35  C   -0.462059
    36  H    0.142222
    37  H    0.147977
    38  C   -0.719435
    39  H    0.172652
    40  H    0.154696
    41  H    0.169462
    42  C   -0.102218
    43  H    0.152075
    44  H    0.151789
    45  C   -0.592439
    46  H    0.152369
    47  H    0.157711
    48  H    0.157527
 Sum of Mulliken atomic charges =   0.00000

 Dipole moment (field-independent basis, Debye):
    X=             -6.7341    Y=              2.0846    Z=             -2.6158  Tot=              7.5190
 Quadrupole moment (field-independent basis, Debye-Ang):
   XX=           -126.8397   YY=           -139.5550   ZZ=           -123.2837
   XY=              5.1398   XZ=             -8.6088   YZ=              7.4022

 Normal termination of Gaussian 09 at Fri Dec 23 15:25:50 2022.
