 Gaussian 09, Revision C.01,
 Gaussian 09:  EM64L-G09RevC.01 23-Sep-2011

 -----------------------------------------------------------------
 # mPW1PW91/6-31g** scrf=(pcm,solvent=chloroform,smd,dovacuum) nmr
 -----------------------------------------------------------------

 99/9=1/99;
 -------
 comment
 -------
 Charge =  0 Multiplicity = 1

                         Standard orientation:
 ---------------------------------------------------------------------
 Center     Atomic      Atomic             Coordinates (Angstroms)
 Number     Number       Type             X           Y           Z
 ---------------------------------------------------------------------
      1          8           0       -0.642577   -0.203793    1.297612
      2          6           0       -1.308100    0.658115    0.363836
      3          6           0        0.157113   -1.000743    0.405461
      4          6           0       -0.282680    1.651139   -0.141020
      5          1           0       -0.616854    2.656746   -0.375706
      6          6           0        1.354538   -0.111880    0.000884
      7          6           0        1.008419    1.310979   -0.297353
      8          1           0        1.788728    1.972929   -0.643813
      9          8           0        2.512522   -0.502572   -0.112590
     10          1           0        0.498034   -1.911554    0.904414
     11          8           0       -0.643701   -1.295381   -0.747842
     12          6           0       -1.730319   -0.349532   -0.693377
     13          1           0       -1.907009    0.082030   -1.682730
     14          1           0       -2.620712   -0.902847   -0.376480
     15          1           0       -2.145969    1.168191    0.846291
 ---------------------------------------------------------------------

 SCF Done:  E(RmPW1PW91) =  -457.774508532     A.U. after   13 cycles

      1  O    Isotropic =   204.2668   Anisotropy =    70.4518

      2  C    Isotropic =   123.8910   Anisotropy =    45.7357

      3  C    Isotropic =    91.9985   Anisotropy =    26.8274

      4  C    Isotropic =    45.9319   Anisotropy =   188.3093

      5  H    Isotropic =    24.0321   Anisotropy =     3.9458

      6  C    Isotropic =     3.4515   Anisotropy =   167.7857

      7  C    Isotropic =    68.1743   Anisotropy =   133.7109

      8  H    Isotropic =    25.0397   Anisotropy =     4.0716

      9  O    Isotropic =  -240.2647   Anisotropy =   903.8696

     10  H    Isotropic =    26.1704   Anisotropy =     7.4658

     11  O    Isotropic =   274.5825   Anisotropy =   119.0258

     12  C    Isotropic =   128.7345   Anisotropy =    54.6551

     13  H    Isotropic =    27.6436   Anisotropy =     8.1023

     14  H    Isotropic =    27.5440   Anisotropy =    10.2724

     15  H    Isotropic =    26.6542   Anisotropy =     8.1394

 The electronic state is 1-A.
 Alpha  occ. eigenvalues --  -19.26686 -19.26476 -19.23557 -10.35556 -10.33896
 Alpha  occ. eigenvalues --  -10.31814 -10.30242 -10.27576 -10.26126  -1.13213
 Alpha  occ. eigenvalues --   -1.06524  -1.03517  -0.83753  -0.80163  -0.68173
 Alpha  occ. eigenvalues --   -0.67580  -0.62175  -0.57085  -0.54970  -0.50070
 Alpha  occ. eigenvalues --   -0.48261  -0.47587  -0.45822  -0.44681  -0.42552
 Alpha  occ. eigenvalues --   -0.40518  -0.39641  -0.37447  -0.36762  -0.32057
 Alpha  occ. eigenvalues --   -0.29755  -0.28715  -0.24735
 Alpha virt. eigenvalues --   -0.05388   0.04166   0.10570   0.13273   0.14873
 Alpha virt. eigenvalues --    0.15741   0.16182   0.17637   0.19082   0.19766
 Alpha virt. eigenvalues --    0.21479   0.22721   0.25262   0.27503   0.29634

 Mulliken atomic charges:
              1
     1  O   -0.494808
     2  C   -0.013913
     3  C    0.249886
     4  C   -0.079562
     5  H    0.175341
     6  C    0.456875
     7  C   -0.172062
     8  H    0.176581
     9  O   -0.509791
    10  H    0.179679
    11  O   -0.519987
    12  C    0.026287
    13  H    0.168280
    14  H    0.167292
    15  H    0.189902
 Sum of Mulliken atomic charges =   0.00000

 Dipole moment (field-independent basis, Debye):
    X=             -4.5521    Y=              3.1574    Z=             -0.5030  Tot=              5.5627
 Quadrupole moment (field-independent basis, Debye-Ang):
   XX=            -53.0340   YY=            -46.2383   ZZ=            -53.0076
   XY=             -0.2134   XZ=              1.7879   YZ=             -3.1866

 Normal termination of Gaussian 09 at Sat Oct 16 10:33:54 2021.
