 Gaussian 09, Revision C.01,
 Gaussian 09:  EM64L-G09RevC.01 23-Sep-2011

 -----------------------------------------------------------------
 # mPW1PW91/6-31g** scrf=(pcm,solvent=chloroform,smd,dovacuum) nmr
 -----------------------------------------------------------------

 99/9=1/99;
 -------
 comment
 -------
 Charge =  0 Multiplicity = 1

                         Standard orientation:
 ---------------------------------------------------------------------
 Center     Atomic      Atomic             Coordinates (Angstroms)
 Number     Number       Type             X           Y           Z
 ---------------------------------------------------------------------
      1          1           0        0.058485   -2.996625    0.235457
      2          6           0        0.104384   -1.918351    0.144195
      3          6           0        0.346036    0.934608   -0.109651
      4          6           0        1.330668   -1.266398    0.101260
      5          6           0       -1.036599   -1.122430    0.035252
      6          6           0       -0.932220    0.286191   -0.077989
      7          6           0        1.503944    0.108469   -0.030000
      8          8           0        2.528538   -1.903355    0.174072
      9          6           0        2.931906    0.301598   -0.051667
     10          6           0        3.486701   -0.955581    0.081466
     11          1           0        4.504156   -1.319669    0.121122
     12          6           0       -2.349712   -1.784450    0.030633
     13          1           0       -2.407255   -2.827990    0.323676
     14          6           0       -3.439892   -1.126392   -0.385050
     15          1           0       -4.397964   -1.634546   -0.436760
     16          6           0       -3.372386    0.309679   -0.810275
     17          1           0       -3.227570    0.334411   -1.898054
     18          1           0       -4.334373    0.796313   -0.610131
     19          6           0       -2.236719    1.088731   -0.111324
     20          1           0       -2.094600    2.007719   -0.691604
     21          6           0        3.702510    1.561021   -0.188184
     22          1           0        3.414777    2.094150   -1.099586
     23          1           0        4.778167    1.363173   -0.248588
     24          1           0        3.533937    2.211159    0.675809
     25          6           0        0.423326    2.432007   -0.264107
     26          1           0        0.126082    2.717464   -1.278136
     27          1           0        1.427410    2.817640   -0.089615
     28          1           0       -0.222739    2.937390    0.458735
     29          6           0       -2.648252    1.479716    1.316579
     30          1           0       -3.557564    2.090229    1.301112
     31          1           0       -1.867306    2.063336    1.814525
     32          1           0       -2.844112    0.602181    1.942637
 ---------------------------------------------------------------------

 SCF Done:  E(RmPW1PW91) =  -656.343406671     A.U. after   13 cycles

      1  H    Isotropic =    24.4809   Anisotropy =     6.0065

      2  C    Isotropic =    90.4082   Anisotropy =   122.1752

      3  C    Isotropic =    64.6321   Anisotropy =   157.4961

      4  C    Isotropic =    47.8340   Anisotropy =   108.5958

      5  C    Isotropic =    69.5242   Anisotropy =   171.3310

      6  C    Isotropic =    62.2552   Anisotropy =   161.9185

      7  C    Isotropic =    74.8926   Anisotropy =   147.1526

      8  O    Isotropic =   107.9783   Anisotropy =   224.4697

      9  C    Isotropic =    79.1530   Anisotropy =   113.7673

     10  C    Isotropic =    56.9949   Anisotropy =    83.5042

     11  H    Isotropic =    23.8377   Anisotropy =     3.7920

     12  C    Isotropic =    70.1515   Anisotropy =   128.9427

     13  H    Isotropic =    24.8065   Anisotropy =     5.1563

     14  C    Isotropic =    69.2118   Anisotropy =   149.7758

     15  H    Isotropic =    25.3971   Anisotropy =     2.7994

     16  C    Isotropic =   163.5963   Anisotropy =    15.8673

     17  H    Isotropic =    28.9844   Anisotropy =     9.5669

     18  H    Isotropic =    29.3716   Anisotropy =     8.7770

     19  C    Isotropic =   165.1339   Anisotropy =    16.1299

     20  H    Isotropic =    28.3704   Anisotropy =     7.4733

     21  C    Isotropic =   183.6669   Anisotropy =    12.8783

     22  H    Isotropic =    29.1614   Anisotropy =     8.3775

     23  H    Isotropic =    29.3506   Anisotropy =     9.9161

     24  H    Isotropic =    29.1703   Anisotropy =     8.7812

     25  C    Isotropic =   180.1659   Anisotropy =    17.4734

     26  H    Isotropic =    29.1238   Anisotropy =     9.1381

     27  H    Isotropic =    28.7680   Anisotropy =    11.0959

     28  H    Isotropic =    29.1563   Anisotropy =     7.6279

     29  C    Isotropic =   176.3268   Anisotropy =    32.1498

     30  H    Isotropic =    30.7873   Anisotropy =    11.6222

     31  H    Isotropic =    30.5660   Anisotropy =     8.4602

     32  H    Isotropic =    30.1589   Anisotropy =     6.8206

 The electronic state is 1-A.
 Alpha  occ. eigenvalues --  -19.29871 -10.29508 -10.29379 -10.26431 -10.25451
 Alpha  occ. eigenvalues --  -10.25305 -10.25175 -10.24997 -10.24972 -10.24494
 Alpha  occ. eigenvalues --  -10.24189 -10.23971 -10.23898 -10.23741 -10.23364
 Alpha  occ. eigenvalues --  -10.22590  -1.14043  -0.89054  -0.84710  -0.82270
 Alpha  occ. eigenvalues --   -0.79965  -0.76453  -0.75417  -0.72404  -0.69568
 Alpha  occ. eigenvalues --   -0.68622  -0.64539  -0.61225  -0.59068  -0.56653
 Alpha  occ. eigenvalues --   -0.53503  -0.52814  -0.48901  -0.47486  -0.47046
 Alpha  occ. eigenvalues --   -0.45836  -0.45601  -0.43822  -0.43081  -0.42441
 Alpha  occ. eigenvalues --   -0.42429  -0.42011  -0.40800  -0.39986  -0.38864
 Alpha  occ. eigenvalues --   -0.38136  -0.36948  -0.36688  -0.35943  -0.35215
 Alpha  occ. eigenvalues --   -0.34402  -0.32309  -0.31412  -0.29880  -0.26382
 Alpha  occ. eigenvalues --   -0.22616  -0.20467
 Alpha virt. eigenvalues --   -0.02106   0.00490   0.05334   0.08786   0.10669
 Alpha virt. eigenvalues --    0.12747   0.12914   0.15113   0.15550   0.16041
 Alpha virt. eigenvalues --    0.16858   0.17108   0.17802   0.18158   0.18635

 Mulliken atomic charges:
              1
     1  H    0.160757
     2  C   -0.214364
     3  C   -0.008389
     4  C    0.269344
     5  C    0.020309
     6  C    0.015936
     7  C    0.023198
     8  O   -0.500321
     9  C   -0.016204
    10  C    0.055516
    11  H    0.181127
    12  C   -0.135839
    13  H    0.144019
    14  C   -0.157981
    15  H    0.141247
    16  C   -0.278848
    17  H    0.155172
    18  H    0.144995
    19  C   -0.190954
    20  H    0.142565
    21  C   -0.461993
    22  H    0.160957
    23  H    0.152546
    24  H    0.162210
    25  C   -0.466437
    26  H    0.165720
    27  H    0.152743
    28  H    0.160302
    29  C   -0.394162
    30  H    0.135517
    31  H    0.140483
    32  H    0.140828
 Sum of Mulliken atomic charges =   0.00000

 Dipole moment (field-independent basis, Debye):
    X=              0.0889    Y=              2.0255    Z=             -0.4072  Tot=              2.0679
 Quadrupole moment (field-independent basis, Debye-Ang):
   XX=            -78.4230   YY=            -87.5810   ZZ=            -96.7151
   XY=              2.3392   XZ=              0.9807   YZ=             -1.4688

 Normal termination of Gaussian 09 at Sat Oct 16 21:44:54 2021.
