 Gaussian 09, Revision C.01,
 Gaussian 09:  EM64L-G09RevC.01 23-Sep-2011

 -----------------------------------------------------------------
 # mPW1PW91/6-31g** scrf=(pcm,solvent=chloroform,smd,dovacuum) nmr
 -----------------------------------------------------------------

 99/9=1/99;
 -------
 comment
 -------
 Charge =  0 Multiplicity = 1

                         Standard orientation:
 ---------------------------------------------------------------------
 Center     Atomic      Atomic             Coordinates (Angstroms)
 Number     Number       Type             X           Y           Z
 ---------------------------------------------------------------------
      1          6           0        4.007806   -1.093519   -0.769563
      2          1           0        4.648240   -1.880147   -1.149045
      3          6           0        3.029056   -1.321715    0.115865
      4          1           0        2.886189   -2.342236    0.469134
      5          6           0        2.117278   -0.253307    0.730187
      6          6           0        4.271887    0.269974   -1.261894
      7          6           0        3.335182    1.330256   -0.838618
      8          6           0        2.346803    1.103388    0.047236
      9          6           0        1.340258    2.203983    0.288869
     10          1           0        0.852268    2.446829   -0.664131
     11          1           0        1.860775    3.110219    0.623065
     12          6           0        0.611685   -0.593973    0.658572
     13          6           0       -0.395758    0.489377    1.088774
     14          1           0       -0.824889    0.202408    2.057005
     15          6           0        0.258894    1.864082    1.307271
     16          1           0       -0.492159    2.661337    1.316929
     17          1           0        0.693143    1.905514    2.311444
     18          1           0        3.475900    2.289208   -1.325404
     19          6           0        2.581081   -0.204635    2.208883
     20          1           0        2.506409   -1.194152    2.678723
     21          1           0        1.989794    0.463569    2.835374
     22          1           0        3.626365    0.119761    2.291422
     23          8           0        0.269143   -1.907645    1.149164
     24          8           0        5.205775    0.508031   -2.016224
     25          6           0       -1.520983    0.542648    0.040039
     26          1           0       -1.055209    0.793254   -0.928189
     27          6           0       -2.236817   -0.822712   -0.099512
     28          6           0       -1.291136   -1.807802   -0.781264
     29          1           0       -1.255666   -1.599037   -1.858579
     30          1           0       -1.661114   -2.836120   -0.689727
     31          6           0        0.116289   -1.732262   -0.259386
     32          1           0        0.804880   -2.257876   -0.907476
     33          6           0       -2.665772    1.536996    0.232690
     34          1           0       -2.353814    2.571313    0.056368
     35          1           0       -3.076639    1.481713    1.247039
     36          6           0       -3.687382    1.099486   -0.831782
     37          1           0       -3.443596    1.565234   -1.793729
     38          6           0       -3.414030   -0.393082   -0.959413
     39          8           0       -4.072879   -1.153584   -1.657179
     40          6           0       -2.836371   -1.409216    1.190896
     41          1           0       -3.411242   -2.316016    0.966107
     42          1           0       -3.531005   -0.716567    1.677684
     43          1           0       -2.078426   -1.684177    1.927776
     44          6           0       -5.118634    1.396899   -0.432641
     45          1           0       -5.813373    1.070812   -1.213906
     46          1           0       -5.263668    2.469989   -0.273153
     47          1           0       -5.395475    0.871571    0.487930
 ---------------------------------------------------------------------

 SCF Done:  E(RmPW1PW91) =  -1002.03506258     A.U. after   13 cycles

      1  C    Isotropic =    70.9838   Anisotropy =   125.9365

      2  H    Isotropic =    25.3310   Anisotropy =     5.2747

      3  C    Isotropic =    44.5497   Anisotropy =   177.2096

      4  H    Isotropic =    24.5998   Anisotropy =    10.0192

      5  C    Isotropic =   147.8571   Anisotropy =    37.6267

      6  C    Isotropic =    18.0234   Anisotropy =   156.9534

      7  C    Isotropic =    69.6997   Anisotropy =   114.0610

      8  C    Isotropic =    32.0177   Anisotropy =   188.5800

      9  C    Isotropic =   167.8969   Anisotropy =    23.4699

     10  H    Isotropic =    28.7543   Anisotropy =     7.0611

     11  H    Isotropic =    28.7647   Anisotropy =    10.1005

     12  C    Isotropic =   130.1888   Anisotropy =    74.8549

     13  C    Isotropic =   159.6110   Anisotropy =    19.9210

     14  H    Isotropic =    29.1704   Anisotropy =     4.5138

     15  C    Isotropic =   173.8617   Anisotropy =    16.6579

     16  H    Isotropic =    29.9060   Anisotropy =     8.5984

     17  H    Isotropic =    29.2632   Anisotropy =     8.3240

     18  H    Isotropic =    25.2008   Anisotropy =     7.5376

     19  C    Isotropic =   172.6461   Anisotropy =    36.2421

     20  H    Isotropic =    29.8548   Anisotropy =     9.2580

     21  H    Isotropic =    29.5296   Anisotropy =     7.0017

     22  H    Isotropic =    30.8343   Anisotropy =    11.5995

     23  O    Isotropic =   277.9131   Anisotropy =   108.3469

     24  O    Isotropic =  -193.7904   Anisotropy =   841.4142

     25  C    Isotropic =   151.1477   Anisotropy =    23.9251

     26  H    Isotropic =    29.8627   Anisotropy =     2.9594

     27  C    Isotropic =   148.2067   Anisotropy =    21.7177

     28  C    Isotropic =   161.3638   Anisotropy =    23.7970

     29  H    Isotropic =    30.1660   Anisotropy =     8.0355

     30  H    Isotropic =    29.5932   Anisotropy =     9.1284

     31  C    Isotropic =   134.0674   Anisotropy =    62.1165

     32  H    Isotropic =    28.6765   Anisotropy =    11.5515

     33  C    Isotropic =   163.1448   Anisotropy =    34.7251

     34  H    Isotropic =    29.5246   Anisotropy =     6.9676

     35  H    Isotropic =    30.4078   Anisotropy =     6.5185

     36  C    Isotropic =   152.7216   Anisotropy =    22.1239

     37  H    Isotropic =    29.4647   Anisotropy =     7.5800

     38  C    Isotropic =   -28.5788   Anisotropy =   168.6465

     39  O    Isotropic =  -232.2536   Anisotropy =   932.6352

     40  C    Isotropic =   178.4666   Anisotropy =    22.0201

     41  H    Isotropic =    31.0283   Anisotropy =    11.0502

     42  H    Isotropic =    30.7764   Anisotropy =     9.4130

     43  H    Isotropic =    29.9955   Anisotropy =     6.2195

     44  C    Isotropic =   177.4887   Anisotropy =    27.2378

     45  H    Isotropic =    30.2304   Anisotropy =    11.3798

     46  H    Isotropic =    30.5932   Anisotropy =    10.4522

     47  H    Isotropic =    30.8867   Anisotropy =     7.6198

 The electronic state is 1-A.
 Alpha  occ. eigenvalues --  -19.25335 -19.22615 -19.21115 -10.32567 -10.32187
 Alpha  occ. eigenvalues --  -10.31909 -10.30221 -10.29058 -10.27980 -10.26988
 Alpha  occ. eigenvalues --  -10.25785 -10.25518 -10.25057 -10.24890 -10.24889
 Alpha  occ. eigenvalues --  -10.24849 -10.24421 -10.24337 -10.24320 -10.24127
 Alpha  occ. eigenvalues --  -10.23769 -10.23405 -10.23352  -1.10144  -1.05952
 Alpha  occ. eigenvalues --   -1.05148  -0.89295  -0.88348  -0.82921  -0.81368
 Alpha  occ. eigenvalues --   -0.79885  -0.77870  -0.75128  -0.73980  -0.72073
 Alpha  occ. eigenvalues --   -0.69342  -0.67162  -0.65770  -0.63956  -0.62340
 Alpha  occ. eigenvalues --   -0.61530  -0.59983  -0.57533  -0.54383  -0.53703
 Alpha  occ. eigenvalues --   -0.51098  -0.50902  -0.50339  -0.48629  -0.47425
 Alpha  occ. eigenvalues --   -0.46883  -0.46401  -0.45886  -0.45161  -0.44477
 Alpha  occ. eigenvalues --   -0.43867  -0.42804  -0.42392  -0.42362  -0.41707
 Alpha  occ. eigenvalues --   -0.41429  -0.40997  -0.40162  -0.39529  -0.39218
 Alpha  occ. eigenvalues --   -0.38775  -0.38301  -0.38002  -0.37484  -0.37076
 Alpha  occ. eigenvalues --   -0.36220  -0.35460  -0.34452  -0.34155  -0.33748
 Alpha  occ. eigenvalues --   -0.32184  -0.31833  -0.31657  -0.28767  -0.28378
 Alpha  occ. eigenvalues --   -0.27142  -0.26124  -0.24983  -0.24242
 Alpha virt. eigenvalues --   -0.05128  -0.01010   0.00543   0.08563   0.09172
 Alpha virt. eigenvalues --    0.10945   0.11343   0.11932   0.12579   0.13456
 Alpha virt. eigenvalues --    0.13942   0.14473   0.14988   0.15616   0.16368

 Mulliken atomic charges:
              1
     1  C   -0.175995
     2  H    0.159132
     3  C   -0.100709
     4  H    0.171609
     5  C   -0.146754
     6  C    0.409157
     7  C   -0.216083
     8  C    0.116780
     9  C   -0.297104
    10  H    0.171879
    11  H    0.169402
    12  C    0.239274
    13  C   -0.112641
    14  H    0.155213
    15  C   -0.287881
    16  H    0.145812
    17  H    0.145411
    18  H    0.149542
    19  C   -0.388485
    20  H    0.161442
    21  H    0.155905
    22  H    0.159151
    23  O   -0.502828
    24  O   -0.553838
    25  C   -0.135040
    26  H    0.145187
    27  C   -0.082960
    28  C   -0.242037
    29  H    0.150285
    30  H    0.155065
    31  C    0.091402
    32  H    0.148696
    33  C   -0.260316
    34  H    0.142412
    35  H    0.142192
    36  C   -0.192290
    37  H    0.180269
    38  C    0.470229
    39  O   -0.525064
    40  C   -0.404577
    41  H    0.151402
    42  H    0.143465
    43  H    0.161014
    44  C   -0.405483
    45  H    0.147146
    46  H    0.145929
    47  H    0.145685
 Sum of Mulliken atomic charges =   0.00000

 Dipole moment (field-independent basis, Debye):
    X=             -3.0821    Y=              2.8943    Z=              4.3175  Tot=              6.0430
 Quadrupole moment (field-independent basis, Debye-Ang):
   XX=           -175.3008   YY=           -128.7372   ZZ=           -141.4014
   XY=            -15.3266   XZ=              7.9105   YZ=              1.6513

 Normal termination of Gaussian 09 at Sat Oct 16 10:28:08 2021.
