 Gaussian 09, Revision C.01,
 Gaussian 09:  EM64L-G09RevC.01 23-Sep-2011

 -----------------------------------------------------------------
 # mPW1PW91/6-31g** scrf=(pcm,solvent=chloroform,smd,dovacuum) nmr
 -----------------------------------------------------------------

 99/9=1/99;
 -------
 comment
 -------
 Charge =  0 Multiplicity = 1

                         Standard orientation:
 ---------------------------------------------------------------------
 Center     Atomic      Atomic             Coordinates (Angstroms)
 Number     Number       Type             X           Y           Z
 ---------------------------------------------------------------------
      1          6           0       -1.384419    0.800760    0.684520
      2          6           0       -2.453070   -0.307901    0.710187
      3          6           0        2.483079    0.752851    0.861641
      4          6           0       -0.083938   -0.615298   -0.869546
      5          6           0        0.000405    0.164618    0.457862
      6          6           0        1.071268    1.281179    0.544818
      7          6           0        0.900712    2.293517   -0.606421
      8          6           0       -0.508577    2.922311   -0.494658
      9          6           0       -1.658280    1.914970   -0.353033
     10          6           0       -3.869245    0.252443    0.862809
     11          6           0        2.946949   -0.528770    0.180592
     12          6           0        1.946426    3.411740   -0.598947
     13          6           0        1.877722   -1.604695   -0.055956
     14          6           0        2.572535   -2.920005   -0.421188
     15          8           0        1.141651   -1.232395   -1.214558
     16          8           0       -1.130875   -1.599343   -0.886280
     17          1           0       -1.395337    1.267403    1.680655
     18          1           0       -2.270129   -0.939270    1.590937
     19          1           0        3.242641    1.529071    0.725366
     20          1           0        2.508738    0.549591    1.943217
     21          1           0       -0.302628    0.042665   -1.714211
     22          1           0        0.841979    1.855625    1.459129
     23          1           0        0.990104    1.783511   -1.571833
     24          1           0       -0.699912    3.558259   -1.367849
     25          1           0       -0.533208    3.587582    0.379260
     26          1           0       -2.559153    2.471503   -0.067609
     27          1           0       -1.875991    1.483579   -1.336698
     28          1           0       -3.924098    0.961162    1.695532
     29          1           0       -4.582433   -0.554213    1.067238
     30          1           0       -4.208242    0.756131   -0.048631
     31          1           0        3.753475   -0.942448    0.800182
     32          1           0        3.397957   -0.255239   -0.782620
     33          1           0        1.702072    4.176522   -1.344362
     34          1           0        2.939001    3.026547   -0.851412
     35          1           0        2.002845    3.899918    0.379686
     36          1           0        3.214452   -2.806252   -1.301590
     37          1           0        3.170675   -3.300810    0.413663
     38          1           0        1.829235   -3.689602   -0.661900
     39          6           0       -2.372494   -1.254158   -0.478256
     40          8           0       -3.363307   -1.775249   -0.979267
     41          8           0        0.298819   -0.721849    1.551044
     42          8           0        1.046653   -1.901491    1.074975
 ---------------------------------------------------------------------

 SCF Done:  E(RmPW1PW91) =  -960.709360060     A.U. after   13 cycles

      1  C    Isotropic =   149.1945   Anisotropy =    27.3632

      2  C    Isotropic =   158.2626   Anisotropy =    22.3846

      3  C    Isotropic =   174.1153   Anisotropy =    19.2249

      4  C    Isotropic =   100.3611   Anisotropy =    38.9606

      5  C    Isotropic =   113.6595   Anisotropy =    53.5001

      6  C    Isotropic =   141.7873   Anisotropy =    25.4438

      7  C    Isotropic =   163.6928   Anisotropy =    11.2825

      8  C    Isotropic =   161.1289   Anisotropy =    24.9698

      9  C    Isotropic =   169.6448   Anisotropy =    18.1586

     10  C    Isotropic =   180.4118   Anisotropy =    17.8047

     11  C    Isotropic =   156.7508   Anisotropy =    37.3990

     12  C    Isotropic =   174.9458   Anisotropy =    29.2378

     13  C    Isotropic =    92.2883   Anisotropy =    20.9968

     14  C    Isotropic =   167.7670   Anisotropy =    45.9002

     15  O    Isotropic =   220.3092   Anisotropy =   111.4953

     16  O    Isotropic =   120.2955   Anisotropy =   180.9163

     17  H    Isotropic =    29.6732   Anisotropy =     4.7378

     18  H    Isotropic =    28.4085   Anisotropy =     5.8931

     19  H    Isotropic =    29.8154   Anisotropy =     8.1191

     20  H    Isotropic =    29.1280   Anisotropy =     8.7891

     21  H    Isotropic =    25.4526   Anisotropy =     2.5338

     22  H    Isotropic =    29.6235   Anisotropy =     3.6575

     23  H    Isotropic =    29.7010   Anisotropy =     3.9380

     24  H    Isotropic =    29.9541   Anisotropy =     9.5706

     25  H    Isotropic =    30.6189   Anisotropy =     7.7139

     26  H    Isotropic =    29.6993   Anisotropy =     9.4651

     27  H    Isotropic =    30.2823   Anisotropy =     6.1085

     28  H    Isotropic =    31.1537   Anisotropy =     9.7667

     29  H    Isotropic =    30.1336   Anisotropy =    11.4285

     30  H    Isotropic =    30.5797   Anisotropy =     7.7831

     31  H    Isotropic =    29.4451   Anisotropy =     8.4372

     32  H    Isotropic =    29.4496   Anisotropy =     6.6674

     33  H    Isotropic =    30.8117   Anisotropy =    10.8210

     34  H    Isotropic =    30.3980   Anisotropy =     9.7144

     35  H    Isotropic =    31.1899   Anisotropy =     8.9433

     36  H    Isotropic =    29.9790   Anisotropy =     8.8615

     37  H    Isotropic =    30.3864   Anisotropy =    10.2293

     38  H    Isotropic =    30.2783   Anisotropy =     9.2285

     39  C    Isotropic =    21.4398   Anisotropy =    92.3515

     40  O    Isotropic =   -94.9516   Anisotropy =   605.1841

     41  O    Isotropic =    53.4572   Anisotropy =   382.5364

     42  O    Isotropic =    46.7292   Anisotropy =   281.3636

 The electronic state is 1-A.
 Alpha  occ. eigenvalues --  -19.31007 -19.30439 -19.28467 -19.26754 -19.22693
 Alpha  occ. eigenvalues --  -10.37959 -10.36904 -10.36248 -10.32037 -10.26473
 Alpha  occ. eigenvalues --  -10.26215 -10.25238 -10.24821 -10.24604 -10.24050
 Alpha  occ. eigenvalues --  -10.23904 -10.23888 -10.23786 -10.23171 -10.22862
 Alpha  occ. eigenvalues --   -1.16682  -1.13194  -1.08402  -1.03900  -0.97151
 Alpha  occ. eigenvalues --   -0.87147  -0.83370  -0.81571  -0.78099  -0.77094
 Alpha  occ. eigenvalues --   -0.74550  -0.71754  -0.69988  -0.67270  -0.65981
 Alpha  occ. eigenvalues --   -0.62722  -0.61994  -0.59520  -0.57809  -0.56160
 Alpha  occ. eigenvalues --   -0.54353  -0.52972  -0.50661  -0.49777  -0.48303
 Alpha  occ. eigenvalues --   -0.47750  -0.46258  -0.45765  -0.44743  -0.44307
 Alpha  occ. eigenvalues --   -0.43695  -0.43277  -0.42677  -0.41745  -0.41088
 Alpha  occ. eigenvalues --   -0.40495  -0.40250  -0.39924  -0.39746  -0.39048
 Alpha  occ. eigenvalues --   -0.38112  -0.37331  -0.36704  -0.36319  -0.35693
 Alpha  occ. eigenvalues --   -0.34779  -0.34409  -0.33800  -0.33389  -0.31905
 Alpha  occ. eigenvalues --   -0.31283  -0.30857  -0.29919  -0.28734  -0.27700
 Alpha  occ. eigenvalues --   -0.26097
 Alpha virt. eigenvalues --    0.00167   0.00561   0.08723   0.09519   0.10580
 Alpha virt. eigenvalues --    0.11476   0.12501   0.13486   0.13907   0.14729
 Alpha virt. eigenvalues --    0.15331   0.15937   0.16224   0.16472   0.16990

 Mulliken atomic charges:
              1
     1  C   -0.154107
     2  C   -0.212848
     3  C   -0.272375
     4  C    0.415396
     5  C    0.173491
     6  C   -0.089819
     7  C   -0.125187
     8  C   -0.247491
     9  C   -0.266434
    10  C   -0.402626
    11  C   -0.233735
    12  C   -0.412509
    13  C    0.442429
    14  C   -0.414115
    15  O   -0.528644
    16  O   -0.498680
    17  H    0.160949
    18  H    0.200415
    19  H    0.143938
    20  H    0.145861
    21  H    0.179130
    22  H    0.144083
    23  H    0.137957
    24  H    0.138039
    25  H    0.133457
    26  H    0.155153
    27  H    0.146895
    28  H    0.140834
    29  H    0.150192
    30  H    0.148871
    31  H    0.147919
    32  H    0.151899
    33  H    0.137088
    34  H    0.140533
    35  H    0.136444
    36  H    0.169087
    37  H    0.159923
    38  H    0.160195
    39  C    0.649467
    40  O   -0.509074
    41  O   -0.326072
    42  O   -0.315928
 Sum of Mulliken atomic charges =   0.00000

 Dipole moment (field-independent basis, Debye):
    X=              3.7835    Y=              5.6740    Z=              0.9906  Tot=              6.8913
 Quadrupole moment (field-independent basis, Debye-Ang):
   XX=           -119.2550   YY=           -120.1528   ZZ=           -121.1746
   XY=            -12.8930   XZ=             -7.5730   YZ=             -2.7990

 Normal termination of Gaussian 09 at Sat Oct 16 12:52:52 2021.
