 Gaussian 09, Revision C.01,
 Gaussian 09:  AM64L-G09RevC.01 23-Sep-2011

 -------------------
 # b3lyp/6-31g** nmr
 -------------------

 99/9=1/99;
 -------
 comment
 -------
 Charge =  0 Multiplicity = 1

                         Standard orientation:
 ---------------------------------------------------------------------
 Center     Atomic      Atomic             Coordinates (Angstroms)
 Number     Number       Type             X           Y           Z
 ---------------------------------------------------------------------
      1          1           0       -1.180083    3.134513    0.000000
      2          6           0       -1.935937    2.342621    0.000000
      3          1           0       -2.575385    2.480986    0.881612
      4          1           0       -2.575385    2.480986   -0.881612
      5          6           0       -1.313367    0.974884    0.000000
      6          1           0       -1.987955    0.120778    0.000000
      7          6           0        0.000000    0.766996    0.000000
      8          1           0        0.745185    1.554489    0.000000
      9         35           0        0.773413   -0.979393    0.000000
 ---------------------------------------------------------------------

 SCF Done:  E(RB3LYP) =  -2689.02029125     A.U. after   14 cycles

      1  H    Isotropic =    30.1085   Anisotropy =     6.0733

      2  C    Isotropic =   172.6981   Anisotropy =    27.6829

      3  H    Isotropic =    29.9455   Anisotropy =     8.7684

      4  H    Isotropic =    29.9455   Anisotropy =     8.7684

      5  C    Isotropic =    62.9606   Anisotropy =   132.5703

      6  H    Isotropic =    25.6626   Anisotropy =     7.7654

      7  C    Isotropic =    71.5414   Anisotropy =    83.4560

      8  H    Isotropic =    25.6891   Anisotropy =     7.1849

      9  Br   Isotropic =  2217.7560   Anisotropy =  1069.0318

 The electronic state is 1-A'.
 Alpha  occ. eigenvalues -- -482.90376 -61.86624 -56.38724 -56.38345 -56.38337
 Alpha  occ. eigenvalues --  -10.23668 -10.20642 -10.19743  -8.57826  -6.53210
 Alpha  occ. eigenvalues --   -6.51965  -6.51926  -2.64786  -2.64435  -2.64404
 Alpha  occ. eigenvalues --   -2.63410  -2.63409  -0.82500  -0.76351  -0.67435
 Alpha  occ. eigenvalues --   -0.56692  -0.45830  -0.44672  -0.42363  -0.38235
 Alpha  occ. eigenvalues --   -0.35871  -0.32633  -0.28045  -0.24189
 Alpha virt. eigenvalues --    0.00653   0.01632   0.11345   0.11979   0.15595
 Alpha virt. eigenvalues --    0.16277   0.16621   0.25735   0.27462   0.34731
 Alpha virt. eigenvalues --    0.42235   0.46614   0.46937   0.47378   0.47835

 Mulliken atomic charges:
              1
     1  H    0.116089
     2  C   -0.355098
     3  H    0.126756
     4  H    0.126756
     5  C   -0.025727
     6  H    0.111399
     7  C   -0.108090
     8  H    0.129787
     9  Br  -0.121872
 Sum of Mulliken atomic charges =   0.00000

 Dipole moment (field-independent basis, Debye):
    X=             -1.1451    Y=              1.6451    Z=              0.0000  Tot=              2.0044
 Quadrupole moment (field-independent basis, Debye-Ang):
   XX=            -34.5691   YY=            -33.9330   ZZ=            -38.5762
   XY=             -0.9377   XZ=              0.0000   YZ=              0.0000

 Normal termination of Gaussian 09 at Fri Nov  1 16:21:42 2024.
