 Gaussian 09, Revision C.01,
 Gaussian 09:  AM64L-G09RevC.01 23-Sep-2011

 -------------------
 # b3lyp/6-31g** nmr
 -------------------

 99/9=1/99;
 -------
 comment
 -------
 Charge =  0 Multiplicity = 1

                         Standard orientation:
 ---------------------------------------------------------------------
 Center     Atomic      Atomic             Coordinates (Angstroms)
 Number     Number       Type             X           Y           Z
 ---------------------------------------------------------------------
      1          6           0        0.602751   -1.089566    0.000000
      2          1           0        1.223741   -1.188180    0.890439
      3          1           0        1.223741   -1.188180   -0.890439
      4          6           0       -0.576192   -2.044623    0.000000
      5          1           0       -1.200177   -1.901863    0.886926
      6          1           0       -0.206481   -3.078525    0.000000
      7          1           0       -1.200177   -1.901863   -0.886926
      8         35           0        0.000000    0.801821    0.000000
 ---------------------------------------------------------------------

 SCF Done:  E(RB3LYP) =  -2650.94191364     A.U. after   13 cycles

      1  C    Isotropic =   150.6714   Anisotropy =    49.0411

      2  H    Isotropic =    28.2335   Anisotropy =    10.9797

      3  H    Isotropic =    28.2335   Anisotropy =    10.9797

      4  C    Isotropic =   171.0409   Anisotropy =    32.4235

      5  H    Isotropic =    30.2376   Anisotropy =     7.9097

      6  H    Isotropic =    30.4051   Anisotropy =    11.4623

      7  H    Isotropic =    30.2376   Anisotropy =     7.9097

      8  Br   Isotropic =  2341.5877   Anisotropy =  1051.8985

 The electronic state is 1-A'.
 Alpha  occ. eigenvalues -- -482.89083 -61.85346 -56.37417 -56.37048 -56.37042
 Alpha  occ. eigenvalues --  -10.24547 -10.19575  -8.56516  -6.51887  -6.50641
 Alpha  occ. eigenvalues --   -6.50628  -2.63455  -2.63108  -2.63097  -2.62103
 Alpha  occ. eigenvalues --   -2.62102  -0.81044  -0.72319  -0.61797  -0.47272
 Alpha  occ. eigenvalues --   -0.44147  -0.40390  -0.37491  -0.34959  -0.26916
 Alpha  occ. eigenvalues --   -0.26809
 Alpha virt. eigenvalues --    0.00393   0.09526   0.13706   0.13936   0.15982
 Alpha virt. eigenvalues --    0.17381   0.20673   0.29270   0.41963   0.43740
 Alpha virt. eigenvalues --    0.46122   0.47021   0.47859   0.51108   0.51706

 Mulliken atomic charges:
              1
     1  C   -0.202721
     2  H    0.150484
     3  H    0.150484
     4  C   -0.313250
     5  H    0.131208
     6  H    0.113766
     7  H    0.131208
     8  Br  -0.161179
 Sum of Mulliken atomic charges =   0.00000

 Dipole moment (field-independent basis, Debye):
    X=              0.4606    Y=             -2.1221    Z=              0.0000  Tot=              2.1715
 Quadrupole moment (field-independent basis, Debye-Ang):
   XX=            -31.4372   YY=            -29.5446   ZZ=            -31.8367
   XY=             -0.9794   XZ=              0.0000   YZ=              0.0000

 Normal termination of Gaussian 09 at Fri Nov  1 16:11:40 2024.
