 Gaussian 09, Revision C.01,
 Gaussian 09:  AM64L-G09RevC.01 23-Sep-2011

 ------------------------------------------------
 # mpw1pw91/6-31+G** nmr scrf=(pcm,solvent=water)
 ------------------------------------------------

 99/9=1/99;
 -------
 comment
 -------
 Charge =  0 Multiplicity = 1

                         Standard orientation:
 ---------------------------------------------------------------------
 Center     Atomic      Atomic             Coordinates (Angstroms)
 Number     Number       Type             X           Y           Z
 ---------------------------------------------------------------------
      1          6           0        2.166407   -0.345151   -0.416532
      2          6           0        0.763523   -0.034146   -1.023502
      3          7           0       -0.191152   -1.047161   -0.486991
      4          6           0        0.649597   -2.184335   -0.059366
      5          6           0        1.938966   -1.563860    0.501989
      6          6           0       -0.969531   -0.425064    0.634034
      7          6           0       -0.547063    1.052167    0.706904
      8          6           0        0.111594    1.312294   -0.654158
      9          1           0        2.866985   -0.590998   -1.221494
     10          1           0        2.579953    0.510954    0.121707
     11          1           0        0.815795   -0.128426   -2.113514
     12          1           0        0.879792   -2.804433   -0.935548
     13          1           0        0.106036   -2.811173    0.653415
     14          1           0        2.780186   -2.264544    0.499289
     15          1           0        1.775716   -1.238845    1.535263
     16          1           0       -0.727439   -0.899178    1.593603
     17          1           0       -1.402205    1.719469    0.875007
     18          1           0       -0.678166    1.529979   -1.384190
     19          8           0        0.991654    2.427076   -0.539473
     20          1           0        1.508417    2.489876   -1.360122
     21          8           0        0.402127    1.218246    1.768270
     22          1           0        0.964201    1.969137    1.503305
     23          6           0       -2.465701   -0.619398    0.389588
     24          1           0       -2.696580   -1.694928    0.401294
     25          1           0       -3.046321   -0.140252    1.184621
     26          8           0       -2.892835   -0.030913   -0.841871
     27          1           0       -2.282630   -0.386818   -1.512856
 ---------------------------------------------------------------------

 SCF Done:  E(RmPW1PW91) =  -594.196725891     A.U. after   13 cycles

      1  C    Isotropic =   168.9398   Anisotropy =    25.7920

      2  C    Isotropic =   125.7058   Anisotropy =    62.9140

      3  N    Isotropic =   191.5416   Anisotropy =    65.6819

      4  C    Isotropic =   139.0930   Anisotropy =    57.2834

      5  C    Isotropic =   170.2711   Anisotropy =    22.0049

      6  C    Isotropic =   119.8319   Anisotropy =    29.8843

      7  C    Isotropic =   117.0889   Anisotropy =    23.1701

      8  C    Isotropic =   119.6205   Anisotropy =    52.4796

      9  H    Isotropic =    30.0859   Anisotropy =    12.3180

     10  H    Isotropic =    29.4425   Anisotropy =     6.8727

     11  H    Isotropic =    28.0240   Anisotropy =     8.5527

     12  H    Isotropic =    28.7074   Anisotropy =    11.9876

     13  H    Isotropic =    28.6130   Anisotropy =     9.8809

     14  H    Isotropic =    30.0395   Anisotropy =    12.4542

     15  H    Isotropic =    29.5953   Anisotropy =     8.5372

     16  H    Isotropic =    28.7871   Anisotropy =     4.7543

     17  H    Isotropic =    27.4183   Anisotropy =     7.1810

     18  H    Isotropic =    27.0613   Anisotropy =     4.8606

     19  O    Isotropic =   302.0748   Anisotropy =    51.5045

     20  H    Isotropic =    29.7685   Anisotropy =    19.4984

     21  O    Isotropic =   306.2596   Anisotropy =    54.2363

     22  H    Isotropic =    28.7394   Anisotropy =    17.0032

     23  C    Isotropic =   128.8781   Anisotropy =    34.6752

     24  H    Isotropic =    27.9997   Anisotropy =     8.0104

     25  H    Isotropic =    28.0564   Anisotropy =     7.3024

     26  O    Isotropic =   320.5843   Anisotropy =    39.7176

     27  H    Isotropic =    29.5344   Anisotropy =    14.0526

 The electronic state is 1-A.
 Alpha  occ. eigenvalues --  -19.26806 -19.25229 -19.25113 -14.41796 -10.30691
 Alpha  occ. eigenvalues --  -10.30380 -10.29301 -10.28145 -10.27769 -10.26928
 Alpha  occ. eigenvalues --  -10.24170 -10.24070  -1.08051  -1.05561  -1.04777
 Alpha  occ. eigenvalues --   -0.96519  -0.82121  -0.78918  -0.75630  -0.71566
 Alpha  occ. eigenvalues --   -0.66807  -0.61900  -0.59891  -0.58771  -0.54223
 Alpha  occ. eigenvalues --   -0.53074  -0.51848  -0.50652  -0.48870  -0.47866
 Alpha  occ. eigenvalues --   -0.45599  -0.45123  -0.43299  -0.41733  -0.41315
 Alpha  occ. eigenvalues --   -0.39813  -0.37943  -0.37541  -0.36197  -0.35521
 Alpha  occ. eigenvalues --   -0.35260  -0.33613  -0.32812  -0.30666  -0.29712
 Alpha  occ. eigenvalues --   -0.29116  -0.24089
 Alpha virt. eigenvalues --    0.00086   0.01448   0.01941   0.02454   0.03448
 Alpha virt. eigenvalues --    0.04323   0.04527   0.04967   0.05151   0.07129
 Alpha virt. eigenvalues --    0.07877   0.08455   0.08682   0.08855   0.09361

 Mulliken atomic charges:
              1
     1  C   -0.488666
     2  C    0.095527
     3  N   -0.227285
     4  C   -0.303126
     5  C   -0.198172
     6  C    0.122785
     7  C    0.059967
     8  C   -0.243345
     9  H    0.171096
    10  H    0.182154
    11  H    0.175151
    12  H    0.166833
    13  H    0.168079
    14  H    0.168756
    15  H    0.179841
    16  H    0.178004
    17  H    0.162980
    18  H    0.180252
    19  O   -0.590077
    20  H    0.396500
    21  O   -0.547357
    22  H    0.385067
    23  C   -0.355203
    24  H    0.154974
    25  H    0.166240
    26  O   -0.545262
    27  H    0.384284
 Sum of Mulliken atomic charges =   0.00000

 Dipole moment (field-independent basis, Debye):
    X=              3.1273    Y=             -1.1764    Z=             -2.0542  Tot=              3.9222
 Quadrupole moment (field-independent basis, Debye-Ang):
   XX=            -78.6364   YY=            -71.5647   ZZ=            -72.2822
   XY=              2.7371   XZ=             -8.0982   YZ=             -5.0269

 Normal termination of Gaussian 09 at Fri May 17 12:34:58 2024.
