 Gaussian 09, Revision C.01,
 Gaussian 09:  AM64L-G09RevC.01 23-Sep-2011

 ------------------------------------------------
 # mpw1pw91/6-31+G** nmr scrf=(pcm,solvent=water)
 ------------------------------------------------

 99/9=1/99;
 -------
 comment
 -------
 Charge =  0 Multiplicity = 1

                         Standard orientation:
 ---------------------------------------------------------------------
 Center     Atomic      Atomic             Coordinates (Angstroms)
 Number     Number       Type             X           Y           Z
 ---------------------------------------------------------------------
      1          6           0       -2.532874    0.001831    0.114743
      2          6           0       -1.198874    0.337278    0.798279
      3          7           0       -0.250615   -0.782446    0.445351
      4          6           0       -0.959768   -1.707201   -0.461252
      5          6           0       -2.439152   -1.514736   -0.121731
      6          6           0        0.990816   -0.194169   -0.089249
      7          6           0        0.993561    1.239229    0.484258
      8          6           0       -0.486636    1.639376    0.393935
      9          1           0       -3.396243    0.293298    0.720251
     10          1           0       -2.601850    0.520562   -0.847271
     11          1           0       -1.331845    0.358851    1.887980
     12          1           0       -0.627222   -2.741747   -0.317238
     13          1           0       -0.776467   -1.448753   -1.518307
     14          1           0       -2.694907   -2.063954    0.792480
     15          1           0       -3.097619   -1.866826   -0.922055
     16          1           0        0.949375   -0.120791   -1.190554
     17          1           0        1.301912    1.218481    1.535455
     18          1           0       -0.738656    2.475823    1.054146
     19          8           0       -0.695574    2.019405   -0.974517
     20          1           0       -1.521621    2.527311   -1.020256
     21          8           0        1.868886    2.136534   -0.181882
     22          1           0        1.395479    2.393002   -0.995189
     23          6           0        2.254773   -0.965440    0.272701
     24          1           0        3.124314   -0.408100   -0.091910
     25          1           0        2.342914   -1.054895    1.364704
     26          8           0        2.331440   -2.257031   -0.343546
     27          1           0        1.657648   -2.813412    0.079773
 ---------------------------------------------------------------------

 SCF Done:  E(RmPW1PW91) =  -594.200067687     A.U. after   13 cycles

      1  C    Isotropic =   170.7830   Anisotropy =    18.9983

      2  C    Isotropic =   127.2159   Anisotropy =    50.2165

      3  N    Isotropic =   191.3341   Anisotropy =    87.3766

      4  C    Isotropic =   136.0831   Anisotropy =    56.9062

      5  C    Isotropic =   164.6692   Anisotropy =    24.7599

      6  C    Isotropic =   121.7171   Anisotropy =    44.9988

      7  C    Isotropic =   117.8229   Anisotropy =    53.1174

      8  C    Isotropic =   121.7197   Anisotropy =    27.9974

      9  H    Isotropic =    29.9652   Anisotropy =    11.7236

     10  H    Isotropic =    29.7668   Anisotropy =     7.1826

     11  H    Isotropic =    28.0087   Anisotropy =     8.8963

     12  H    Isotropic =    28.4070   Anisotropy =     8.7571

     13  H    Isotropic =    29.0531   Anisotropy =     7.3815

     14  H    Isotropic =    29.4917   Anisotropy =    10.9287

     15  H    Isotropic =    29.4622   Anisotropy =    11.5752

     16  H    Isotropic =    28.8410   Anisotropy =     3.8975

     17  H    Isotropic =    27.7199   Anisotropy =     4.4179

     18  H    Isotropic =    27.6750   Anisotropy =     8.5350

     19  O    Isotropic =   302.5158   Anisotropy =    43.0245

     20  H    Isotropic =    29.6738   Anisotropy =    20.7940

     21  O    Isotropic =   303.5750   Anisotropy =    35.0586

     22  H    Isotropic =    28.6424   Anisotropy =    14.4616

     23  C    Isotropic =   124.9982   Anisotropy =    50.7084

     24  H    Isotropic =    27.6896   Anisotropy =     5.2859

     25  H    Isotropic =    27.9467   Anisotropy =     5.4318

     26  O    Isotropic =   306.2125   Anisotropy =    22.4136

     27  H    Isotropic =    30.1295   Anisotropy =    14.8573

 The electronic state is 1-A.
 Alpha  occ. eigenvalues --  -19.26633 -19.25698 -19.25535 -14.41271 -10.30768
 Alpha  occ. eigenvalues --  -10.30736 -10.29296 -10.27910 -10.27654 -10.26982
 Alpha  occ. eigenvalues --  -10.24699 -10.24665  -1.08147  -1.05584  -1.05178
 Alpha  occ. eigenvalues --   -0.96354  -0.83027  -0.79430  -0.75234  -0.71799
 Alpha  occ. eigenvalues --   -0.66345  -0.62164  -0.60609  -0.57944  -0.56004
 Alpha  occ. eigenvalues --   -0.53046  -0.52579  -0.50788  -0.49254  -0.46485
 Alpha  occ. eigenvalues --   -0.45449  -0.44790  -0.43191  -0.42991  -0.39982
 Alpha  occ. eigenvalues --   -0.39690  -0.38985  -0.38162  -0.36427  -0.35853
 Alpha  occ. eigenvalues --   -0.35022  -0.34494  -0.33333  -0.31060  -0.30519
 Alpha  occ. eigenvalues --   -0.28911  -0.23061
 Alpha virt. eigenvalues --    0.00345   0.01402   0.01954   0.02412   0.03672
 Alpha virt. eigenvalues --    0.04344   0.04789   0.05150   0.05457   0.07085
 Alpha virt. eigenvalues --    0.07410   0.08096   0.08637   0.09243   0.09589

 Mulliken atomic charges:
              1
     1  C   -0.447071
     2  C   -0.080521
     3  N   -0.197934
     4  C   -0.198258
     5  C   -0.403822
     6  C    0.169933
     7  C   -0.331977
     8  C    0.332725
     9  H    0.177931
    10  H    0.172485
    11  H    0.169480
    12  H    0.156920
    13  H    0.153362
    14  H    0.179085
    15  H    0.177981
    16  H    0.159141
    17  H    0.183798
    18  H    0.174348
    19  O   -0.654968
    20  H    0.406477
    21  O   -0.535754
    22  H    0.387203
    23  C   -0.311892
    24  H    0.167761
    25  H    0.160941
    26  O   -0.540099
    27  H    0.372723
 Sum of Mulliken atomic charges =   0.00000

 Dipole moment (field-independent basis, Debye):
    X=             -5.8994    Y=              1.3930    Z=              1.3149  Tot=              6.2026
 Quadrupole moment (field-independent basis, Debye-Ang):
   XX=            -77.9064   YY=            -72.0152   ZZ=            -72.6559
   XY=             -2.7239   XZ=              3.3184   YZ=             -2.1432

 Normal termination of Gaussian 09 at Fri May 17 12:29:30 2024.
