 Gaussian 09, Revision C.01,
 Gaussian 09:  AM64L-G09RevC.01 23-Sep-2011

 ------------------------------------------------
 # mpw1pw91/6-31+G** nmr scrf=(pcm,solvent=water)
 ------------------------------------------------

 99/9=1/99;
 -------
 comment
 -------
 Charge =  0 Multiplicity = 1

                         Standard orientation:
 ---------------------------------------------------------------------
 Center     Atomic      Atomic             Coordinates (Angstroms)
 Number     Number       Type             X           Y           Z
 ---------------------------------------------------------------------
      1          6           0       -2.537021    0.041176    0.107256
      2          6           0       -1.199727    0.362692    0.792474
      3          7           0       -0.265173   -0.774763    0.452885
      4          6           0       -0.985382   -1.694613   -0.450992
      5          6           0       -2.463358   -1.477829   -0.119507
      6          6           0        0.986618   -0.208322   -0.082197
      7          6           0        1.013289    1.227026    0.485855
      8          6           0       -0.464556    1.653595    0.394593
      9          1           0       -3.395377    0.348330    0.711958
     10          1           0       -2.605478    0.558040   -0.855902
     11          1           0       -1.337059    0.389892    1.880843
     12          1           0       -0.668475   -2.732793   -0.299519
     13          1           0       -0.793434   -1.444975   -1.508907
     14          1           0       -2.731490   -2.017661    0.796648
     15          1           0       -3.123062   -1.824933   -0.920877
     16          1           0        0.948967   -0.140850   -1.185662
     17          1           0        1.325856    1.204282    1.536202
     18          1           0       -0.698906    2.487494    1.059833
     19          8           0       -0.742791    2.148117   -0.924775
     20          1           0       -0.676655    1.412792   -1.559107
     21          8           0        1.896430    2.108800   -0.189913
     22          1           0        1.401446    2.403377   -0.978177
     23          6           0        2.239148   -0.998918    0.277523
     24          1           0        3.115580   -0.452522   -0.086974
     25          1           0        2.326622   -1.090711    1.369269
     26          8           0        2.297790   -2.289962   -0.341088
     27          1           0        1.622184   -2.840903    0.086340
 ---------------------------------------------------------------------

 SCF Done:  E(RmPW1PW91) =  -594.197947327     A.U. after   13 cycles

      1  C    Isotropic =   170.8092   Anisotropy =    21.4588

      2  C    Isotropic =   128.5885   Anisotropy =    51.3381

      3  N    Isotropic =   191.2174   Anisotropy =    86.4510

      4  C    Isotropic =   135.5606   Anisotropy =    56.2795

      5  C    Isotropic =   164.8761   Anisotropy =    24.6544

      6  C    Isotropic =   122.2823   Anisotropy =    47.2308

      7  C    Isotropic =   117.9080   Anisotropy =    51.3947

      8  C    Isotropic =   120.6686   Anisotropy =    30.9291

      9  H    Isotropic =    29.8391   Anisotropy =    11.8273

     10  H    Isotropic =    29.8261   Anisotropy =     7.1838

     11  H    Isotropic =    27.8411   Anisotropy =     9.0485

     12  H    Isotropic =    28.3580   Anisotropy =     8.7059

     13  H    Isotropic =    29.1592   Anisotropy =     7.4918

     14  H    Isotropic =    29.4765   Anisotropy =    10.9549

     15  H    Isotropic =    29.4617   Anisotropy =    11.6158

     16  H    Isotropic =    29.1890   Anisotropy =     4.0781

     17  H    Isotropic =    27.7506   Anisotropy =     4.5996

     18  H    Isotropic =    27.7667   Anisotropy =     8.5530

     19  O    Isotropic =   301.7513   Anisotropy =    84.5880

     20  H    Isotropic =    31.1331   Anisotropy =    14.5602

     21  O    Isotropic =   302.3313   Anisotropy =    34.5566

     22  H    Isotropic =    28.8067   Anisotropy =    14.3232

     23  C    Isotropic =   125.2081   Anisotropy =    50.6918

     24  H    Isotropic =    27.6890   Anisotropy =     5.3501

     25  H    Isotropic =    27.9060   Anisotropy =     5.5029

     26  O    Isotropic =   306.1318   Anisotropy =    21.6293

     27  H    Isotropic =    30.1235   Anisotropy =    14.8976

 The electronic state is 1-A.
 Alpha  occ. eigenvalues --  -19.27186 -19.25928 -19.25680 -14.41683 -10.31007
 Alpha  occ. eigenvalues --  -10.30877 -10.29563 -10.28323 -10.28225 -10.27311
 Alpha  occ. eigenvalues --  -10.24968 -10.24870  -1.08514  -1.05758  -1.05427
 Alpha  occ. eigenvalues --   -0.96748  -0.83302  -0.79688  -0.75561  -0.71963
 Alpha  occ. eigenvalues --   -0.67089  -0.62358  -0.60911  -0.58897  -0.55379
 Alpha  occ. eigenvalues --   -0.54061  -0.52006  -0.51135  -0.48244  -0.47965
 Alpha  occ. eigenvalues --   -0.46440  -0.45270  -0.43362  -0.42530  -0.40065
 Alpha  occ. eigenvalues --   -0.39865  -0.39712  -0.38245  -0.36384  -0.35967
 Alpha  occ. eigenvalues --   -0.35483  -0.34811  -0.34045  -0.31800  -0.30616
 Alpha  occ. eigenvalues --   -0.28848  -0.23497
 Alpha virt. eigenvalues --    0.00375   0.01350   0.01629   0.02368   0.03863
 Alpha virt. eigenvalues --    0.04345   0.04723   0.04772   0.05511   0.07299
 Alpha virt. eigenvalues --    0.07372   0.08033   0.08519   0.08927   0.09666

 Mulliken atomic charges:
              1
     1  C   -0.444347
     2  C   -0.074008
     3  N   -0.242092
     4  C   -0.236909
     5  C   -0.355424
     6  C    0.249043
     7  C   -0.290335
     8  C    0.210137
     9  H    0.181441
    10  H    0.171650
    11  H    0.177365
    12  H    0.161266
    13  H    0.158534
    14  H    0.181395
    15  H    0.180302
    16  H    0.150347
    17  H    0.185367
    18  H    0.179437
    19  O   -0.588558
    20  H    0.398497
    21  O   -0.519052
    22  H    0.386809
    23  C   -0.391271
    24  H    0.170055
    25  H    0.164467
    26  O   -0.537361
    27  H    0.373246
 Sum of Mulliken atomic charges =   0.00000

 Dipole moment (field-independent basis, Debye):
    X=             -4.1627    Y=             -1.1661    Z=              0.5313  Tot=              4.3554
 Quadrupole moment (field-independent basis, Debye-Ang):
   XX=            -81.3811   YY=            -81.1998   ZZ=            -69.1824
   XY=              3.8038   XZ=              2.1710   YZ=             -0.5747

 Normal termination of Gaussian 09 at Fri May 17 12:12:55 2024.
