 Gaussian 09, Revision C.01,
 Gaussian 09:  AM64L-G09RevC.01 23-Sep-2011

 ------------------------------------------------
 # mpw1pw91/6-31+G** nmr scrf=(pcm,solvent=water)
 ------------------------------------------------

 99/9=1/99;
 -------
 comment
 -------
 Charge =  0 Multiplicity = 1

                         Standard orientation:
 ---------------------------------------------------------------------
 Center     Atomic      Atomic             Coordinates (Angstroms)
 Number     Number       Type             X           Y           Z
 ---------------------------------------------------------------------
      1          6           0       -2.469643   -0.223162    0.548350
      2          6           0       -1.021228    0.051284    1.008097
      3          7           0       -0.152648   -0.976678    0.319653
      4          6           0       -1.044896   -1.836019   -0.495038
      5          6           0       -2.305119   -1.004293   -0.764589
      6          6           0        0.874492   -0.255949   -0.465735
      7          6           0        1.024224    1.077113    0.288527
      8          6           0       -0.428161    1.424628    0.638426
      9          1           0       -2.978996   -0.844076    1.293903
     10          1           0       -3.051198    0.696255    0.431809
     11          1           0       -0.936603   -0.068899    2.094207
     12          1           0       -1.303605   -2.739060    0.073423
     13          1           0       -0.529350   -2.160264   -1.404171
     14          1           0       -3.175567   -1.622044   -1.008672
     15          1           0       -2.132556   -0.314255   -1.597968
     16          1           0        0.537457   -0.033558   -1.492032
     17          1           0        1.594604    0.912617    1.207631
     18          1           0       -0.506376    2.141682    1.462155
     19          8           0       -0.987198    2.000167   -0.553244
     20          1           0       -1.780267    2.499271   -0.300650
     21          8           0        1.696062    2.091686   -0.442531
     22          1           0        1.026553    2.443621   -1.058533
     23          6           0        2.163952   -1.068360   -0.559140
     24          1           0        1.997513   -1.953972   -1.191484
     25          1           0        2.948717   -0.465662   -1.029090
     26          8           0        2.637265   -1.456937    0.731117
     27          1           0        1.827457   -1.725687    1.205781
 ---------------------------------------------------------------------

 SCF Done:  E(RmPW1PW91) =  -594.202856469     A.U. after   12 cycles

      1  C    Isotropic =   166.9890   Anisotropy =    24.0483

      2  C    Isotropic =   128.2437   Anisotropy =    51.6140

      3  N    Isotropic =   201.0308   Anisotropy =    73.4614

      4  C    Isotropic =   142.4036   Anisotropy =    54.1951

      5  C    Isotropic =   168.7220   Anisotropy =    22.7595

      6  C    Isotropic =   124.1999   Anisotropy =    48.5100

      7  C    Isotropic =   123.4534   Anisotropy =    58.4737

      8  C    Isotropic =   119.6108   Anisotropy =    22.9056

      9  H    Isotropic =    29.8071   Anisotropy =    12.4224

     10  H    Isotropic =    29.7024   Anisotropy =     9.1997

     11  H    Isotropic =    28.0702   Anisotropy =     8.8109

     12  H    Isotropic =    28.8865   Anisotropy =    12.1261

     13  H    Isotropic =    28.7803   Anisotropy =     8.7773

     14  H    Isotropic =    30.0511   Anisotropy =    12.8228

     15  H    Isotropic =    29.8325   Anisotropy =     8.0267

     16  H    Isotropic =    28.9871   Anisotropy =     3.0771

     17  H    Isotropic =    27.3773   Anisotropy =     3.7634

     18  H    Isotropic =    27.6089   Anisotropy =     8.3336

     19  O    Isotropic =   309.3394   Anisotropy =    34.7075

     20  H    Isotropic =    29.4940   Anisotropy =    20.8600

     21  O    Isotropic =   311.0671   Anisotropy =    30.0459

     22  H    Isotropic =    28.8360   Anisotropy =    15.2263

     23  C    Isotropic =   135.1673   Anisotropy =    54.4941

     24  H    Isotropic =    27.8641   Anisotropy =     7.6022

     25  H    Isotropic =    27.8899   Anisotropy =     6.4907

     26  O    Isotropic =   331.4448   Anisotropy =    48.8422

     27  H    Isotropic =    28.9897   Anisotropy =    16.1762

 The electronic state is 1-A.
 Alpha  occ. eigenvalues --  -19.26513 -19.25588 -19.24799 -14.41741 -10.30680
 Alpha  occ. eigenvalues --  -10.30307 -10.29128 -10.27988 -10.27837 -10.26951
 Alpha  occ. eigenvalues --  -10.24831 -10.24311  -1.08032  -1.05310  -1.04960
 Alpha  occ. eigenvalues --   -0.96382  -0.82512  -0.79469  -0.75058  -0.71637
 Alpha  occ. eigenvalues --   -0.66754  -0.62346  -0.60004  -0.57845  -0.56109
 Alpha  occ. eigenvalues --   -0.52731  -0.51584  -0.49665  -0.49035  -0.47791
 Alpha  occ. eigenvalues --   -0.46099  -0.44934  -0.43835  -0.41756  -0.40433
 Alpha  occ. eigenvalues --   -0.39155  -0.38807  -0.37927  -0.36103  -0.35739
 Alpha  occ. eigenvalues --   -0.35176  -0.34226  -0.33784  -0.30708  -0.30044
 Alpha  occ. eigenvalues --   -0.28541  -0.23841
 Alpha virt. eigenvalues --    0.00069   0.01584   0.01927   0.02421   0.04034
 Alpha virt. eigenvalues --    0.04095   0.04522   0.04857   0.05537   0.07358
 Alpha virt. eigenvalues --    0.07524   0.08152   0.08398   0.08910   0.09565

 Mulliken atomic charges:
              1
     1  C   -0.511622
     2  C    0.083151
     3  N   -0.271350
     4  C   -0.277554
     5  C   -0.246983
     6  C    0.336792
     7  C   -0.348398
     8  C    0.215671
     9  H    0.179957
    10  H    0.163599
    11  H    0.169438
    12  H    0.166208
    13  H    0.165704
    14  H    0.170997
    15  H    0.181222
    16  H    0.169050
    17  H    0.188756
    18  H    0.173402
    19  O   -0.647887
    20  H    0.406081
    21  O   -0.531427
    22  H    0.385351
    23  C   -0.459374
    24  H    0.149111
    25  H    0.165447
    26  O   -0.561220
    27  H    0.385877
 Sum of Mulliken atomic charges =   0.00000

 Dipole moment (field-independent basis, Debye):
    X=             -6.7218    Y=              0.6342    Z=             -0.1330  Tot=              6.7530
 Quadrupole moment (field-independent basis, Debye-Ang):
   XX=            -82.5243   YY=            -72.4133   ZZ=            -70.0586
   XY=             -3.2457   XZ=             -5.0241   YZ=              4.0300

 Normal termination of Gaussian 09 at Fri May 17 12:34:17 2024.
