 Gaussian 09, Revision C.01,
 Gaussian 09:  AM64L-G09RevC.01 23-Sep-2011

 ------------------------------------------------
 # mpw1pw91/6-31+G** nmr scrf=(pcm,solvent=water)
 ------------------------------------------------

 99/9=1/99;
 -------
 comment
 -------
 Charge =  0 Multiplicity = 1

                         Standard orientation:
 ---------------------------------------------------------------------
 Center     Atomic      Atomic             Coordinates (Angstroms)
 Number     Number       Type             X           Y           Z
 ---------------------------------------------------------------------
      1          6           0       -2.477194   -0.598756    0.333813
      2          6           0       -1.222955    0.053274    0.954242
      3          7           0       -0.060734   -0.845629    0.610892
      4          6           0       -0.588604   -1.963745   -0.207335
      5          6           0       -1.921827   -1.482653   -0.793606
      6          6           0        0.974722   -0.030138   -0.057495
      7          6           0        0.688737    1.397348    0.422931
      8          6           0       -0.849031    1.453213    0.447910
      9          1           0       -2.976066   -1.219780    1.086623
     10          1           0       -3.198510    0.145268   -0.015111
     11          1           0       -1.327777    0.115157    2.043874
     12          1           0       -0.756079   -2.840804    0.432379
     13          1           0        0.143246   -2.252639   -0.966520
     14          1           0       -2.588989   -2.309704   -1.058522
     15          1           0       -1.747545   -0.883982   -1.694025
     16          1           0        0.856327   -0.043591   -1.153694
     17          1           0        1.085690    1.551829    1.434110
     18          1           0       -1.225340    2.239769    1.115912
     19          8           0       -1.326204    1.685204   -0.880409
     20          1           0       -0.638265    2.241631   -1.296160
     21          8           0        1.259766    2.340885   -0.484868
     22          1           0        1.266302    3.206977   -0.042628
     23          6           0        2.400489   -0.470128    0.262473
     24          1           0        3.098828    0.270893   -0.140838
     25          1           0        2.537187   -0.514242    1.352200
     26          8           0        2.767121   -1.716518   -0.342239
     27          1           0        2.264648   -2.414440    0.108689
 ---------------------------------------------------------------------

 SCF Done:  E(RmPW1PW91) =  -594.198349736     A.U. after   13 cycles

      1  C    Isotropic =   167.6332   Anisotropy =    22.9361

      2  C    Isotropic =   127.3445   Anisotropy =    55.3517

      3  N    Isotropic =   191.2057   Anisotropy =    75.3311

      4  C    Isotropic =   139.6584   Anisotropy =    58.0136

      5  C    Isotropic =   168.2244   Anisotropy =    24.4774

      6  C    Isotropic =   125.1502   Anisotropy =    41.0640

      7  C    Isotropic =   119.4012   Anisotropy =    49.7585

      8  C    Isotropic =   121.2808   Anisotropy =    21.2716

      9  H    Isotropic =    29.9167   Anisotropy =    12.5241

     10  H    Isotropic =    29.4163   Anisotropy =     9.2126

     11  H    Isotropic =    27.9860   Anisotropy =     9.1303

     12  H    Isotropic =    28.6858   Anisotropy =    11.6537

     13  H    Isotropic =    28.6466   Anisotropy =     7.4127

     14  H    Isotropic =    30.1007   Anisotropy =    12.7400

     15  H    Isotropic =    29.6687   Anisotropy =     7.6666

     16  H    Isotropic =    28.6801   Anisotropy =     4.2528

     17  H    Isotropic =    27.7339   Anisotropy =     4.3161

     18  H    Isotropic =    27.7859   Anisotropy =     9.0098

     19  O    Isotropic =   312.8687   Anisotropy =    47.3121

     20  H    Isotropic =    28.6331   Anisotropy =    18.4874

     21  O    Isotropic =   307.8055   Anisotropy =    92.5862

     22  H    Isotropic =    30.0482   Anisotropy =    22.7001

     23  C    Isotropic =   124.8194   Anisotropy =    48.6917

     24  H    Isotropic =    27.7633   Anisotropy =     5.3031

     25  H    Isotropic =    28.0153   Anisotropy =     5.4707

     26  O    Isotropic =   307.0384   Anisotropy =    20.7760

     27  H    Isotropic =    30.0231   Anisotropy =    14.6392

 The electronic state is 1-A.
 Alpha  occ. eigenvalues --  -19.27313 -19.25596 -19.24964 -14.41211 -10.31135
 Alpha  occ. eigenvalues --  -10.30091 -10.29355 -10.27951 -10.27787 -10.26713
 Alpha  occ. eigenvalues --  -10.24446 -10.24036  -1.08435  -1.05613  -1.04815
 Alpha  occ. eigenvalues --   -0.96144  -0.82735  -0.79114  -0.75396  -0.71459
 Alpha  occ. eigenvalues --   -0.66633  -0.61696  -0.60061  -0.57587  -0.56001
 Alpha  occ. eigenvalues --   -0.53465  -0.51736  -0.50481  -0.49333  -0.48717
 Alpha  occ. eigenvalues --   -0.45778  -0.43847  -0.43142  -0.41469  -0.40471
 Alpha  occ. eigenvalues --   -0.39747  -0.38929  -0.37587  -0.35625  -0.35297
 Alpha  occ. eigenvalues --   -0.34725  -0.34560  -0.33884  -0.30928  -0.30161
 Alpha  occ. eigenvalues --   -0.28940  -0.23173
 Alpha virt. eigenvalues --    0.00265   0.01230   0.02005   0.02236   0.03701
 Alpha virt. eigenvalues --    0.04198   0.04532   0.05282   0.05414   0.07002
 Alpha virt. eigenvalues --    0.07495   0.08039   0.08417   0.09162   0.09677

 Mulliken atomic charges:
              1
     1  C   -0.526867
     2  C    0.136368
     3  N   -0.192426
     4  C   -0.262801
     5  C   -0.238507
     6  C   -0.014688
     7  C   -0.135983
     8  C    0.090566
     9  H    0.174508
    10  H    0.179315
    11  H    0.165132
    12  H    0.163591
    13  H    0.163097
    14  H    0.167580
    15  H    0.181455
    16  H    0.174150
    17  H    0.181624
    18  H    0.159215
    19  O   -0.564048
    20  H    0.389700
    21  O   -0.608734
    22  H    0.404861
    23  C   -0.347120
    24  H    0.168691
    25  H    0.162904
    26  O   -0.546781
    27  H    0.375198
 Sum of Mulliken atomic charges =   0.00000

 Dipole moment (field-independent basis, Debye):
    X=             -1.1682    Y=              2.1545    Z=              3.0539  Tot=              3.9158
 Quadrupole moment (field-independent basis, Debye-Ang):
   XX=            -83.4501   YY=            -61.4784   ZZ=            -74.4951
   XY=              8.5439   XZ=              2.5527   YZ=              3.4739

 Normal termination of Gaussian 09 at Fri May 17 12:20:37 2024.
