 Gaussian 09, Revision C.01,
 Gaussian 09:  AM64L-G09RevC.01 23-Sep-2011

 ------------------------------------------------
 # mpw1pw91/6-31+G** nmr scrf=(pcm,solvent=water)
 ------------------------------------------------

 99/9=1/99;
 -------
 comment
 -------
 Charge =  0 Multiplicity = 1

                         Standard orientation:
 ---------------------------------------------------------------------
 Center     Atomic      Atomic             Coordinates (Angstroms)
 Number     Number       Type             X           Y           Z
 ---------------------------------------------------------------------
      1          6           0       -1.715364    1.415877   -0.264560
      2          6           0       -0.746625    0.454996   -1.019913
      3          7           0        0.629430    0.710036   -0.495389
      4          6           0        0.570585    2.044041    0.136705
      5          6           0       -0.829041    2.155754    0.757578
      6          6           0        0.998461   -0.399969    0.438266
      7          6           0       -0.182849   -1.380382    0.478374
      8          6           0       -0.954691   -1.063707   -0.813769
      9          1           0       -2.155345    2.121983   -0.976816
     10          1           0       -2.543417    0.880443    0.207146
     11          1           0       -0.779178    0.682322   -2.090378
     12          1           0        0.699218    2.806169   -0.643073
     13          1           0        1.391123    2.161374    0.850102
     14          1           0       -1.139312    3.193000    0.920512
     15          1           0       -0.848782    1.641838    1.724750
     16          1           0        1.186385   -0.004815    1.443459
     17          1           0        0.146275   -2.425465    0.513230
     18          1           0       -0.474922   -1.594537   -1.642168
     19          8           0       -2.305593   -1.500139   -0.780310
     20          1           0       -2.584825   -1.407467    0.148983
     21          8           0       -1.087276   -1.130338    1.564541
     22          1           0       -0.692606   -1.504220    2.369254
     23          6           0        2.284979   -1.062944   -0.066576
     24          1           0        2.675598   -1.762306    0.679792
     25          1           0        2.080482   -1.629413   -0.988880
     26          8           0        3.297828   -0.083557   -0.296936
     27          1           0        2.840912    0.601116   -0.823179
 ---------------------------------------------------------------------

 SCF Done:  E(RmPW1PW91) =  -594.198084508     A.U. after   13 cycles

      1  C    Isotropic =   169.1001   Anisotropy =    25.4363

      2  C    Isotropic =   126.2302   Anisotropy =    64.0969

      3  N    Isotropic =   192.7058   Anisotropy =    60.6819

      4  C    Isotropic =   137.1088   Anisotropy =    60.3775

      5  C    Isotropic =   169.9926   Anisotropy =    20.3227

      6  C    Isotropic =   119.6813   Anisotropy =    28.1899

      7  C    Isotropic =   119.8261   Anisotropy =    27.3247

      8  C    Isotropic =   120.6289   Anisotropy =    53.0208

      9  H    Isotropic =    30.0344   Anisotropy =    12.4621

     10  H    Isotropic =    29.6226   Anisotropy =     7.0299

     11  H    Isotropic =    27.9869   Anisotropy =     9.0680

     12  H    Isotropic =    28.5965   Anisotropy =    11.6189

     13  H    Isotropic =    28.6741   Anisotropy =     8.8808

     14  H    Isotropic =    30.0533   Anisotropy =    12.5290

     15  H    Isotropic =    29.7017   Anisotropy =     8.2810

     16  H    Isotropic =    28.8780   Anisotropy =     6.1936

     17  H    Isotropic =    27.8872   Anisotropy =     6.8575

     18  H    Isotropic =    27.1926   Anisotropy =     6.0971

     19  O    Isotropic =   310.5060   Anisotropy =    36.4419

     20  H    Isotropic =    28.3191   Anisotropy =    14.4367

     21  O    Isotropic =   295.6851   Anisotropy =    46.8533

     22  H    Isotropic =    29.7757   Anisotropy =    20.4765

     23  C    Isotropic =   130.7696   Anisotropy =    47.9853

     24  H    Isotropic =    28.1416   Anisotropy =     6.6225

     25  H    Isotropic =    28.5546   Anisotropy =     5.9907

     26  O    Isotropic =   315.3534   Anisotropy =    37.9884

     27  H    Isotropic =    28.8485   Anisotropy =    15.5249

 The electronic state is 1-A.
 Alpha  occ. eigenvalues --  -19.26691 -19.25649 -19.25021 -14.41912 -10.31094
 Alpha  occ. eigenvalues --  -10.30634 -10.29397 -10.28258 -10.27664 -10.26940
 Alpha  occ. eigenvalues --  -10.24252 -10.24076  -1.08174  -1.05444  -1.05137
 Alpha  occ. eigenvalues --   -0.96556  -0.82522  -0.78756  -0.75609  -0.71493
 Alpha  occ. eigenvalues --   -0.66758  -0.62480  -0.60022  -0.57815  -0.56362
 Alpha  occ. eigenvalues --   -0.53744  -0.51675  -0.49559  -0.48355  -0.47902
 Alpha  occ. eigenvalues --   -0.45772  -0.45062  -0.43394  -0.42192  -0.41396
 Alpha  occ. eigenvalues --   -0.39470  -0.38932  -0.37568  -0.36612  -0.35351
 Alpha  occ. eigenvalues --   -0.34696  -0.34091  -0.32891  -0.31237  -0.29500
 Alpha  occ. eigenvalues --   -0.29405  -0.24055
 Alpha virt. eigenvalues --    0.00227   0.01451   0.02013   0.02309   0.03749
 Alpha virt. eigenvalues --    0.04230   0.04602   0.04770   0.05286   0.07078
 Alpha virt. eigenvalues --    0.07532   0.07903   0.08797   0.09077   0.09729

 Mulliken atomic charges:
              1
     1  C   -0.431671
     2  C    0.124855
     3  N   -0.232635
     4  C   -0.251826
     5  C   -0.238006
     6  C   -0.049427
     7  C    0.145529
     8  C   -0.346263
     9  H    0.171209
    10  H    0.165397
    11  H    0.169460
    12  H    0.169244
    13  H    0.170719
    14  H    0.169091
    15  H    0.179957
    16  H    0.179326
    17  H    0.175780
    18  H    0.181695
    19  O   -0.529508
    20  H    0.385265
    21  O   -0.622756
    22  H    0.404135
    23  C   -0.259820
    24  H    0.169301
    25  H    0.150770
    26  O   -0.532483
    27  H    0.382660
 Sum of Mulliken atomic charges =   0.00000

 Dipole moment (field-independent basis, Debye):
    X=             -0.6335    Y=              0.0028    Z=              2.7371  Tot=              2.8095
 Quadrupole moment (field-independent basis, Debye-Ang):
   XX=            -93.6933   YY=            -67.4430   ZZ=            -68.4155
   XY=             -4.8695   XZ=             -1.9130   YZ=             -6.2155

 Normal termination of Gaussian 09 at Fri May 17 12:10:01 2024.
