 Gaussian 09, Revision C.01,
 Gaussian 09:  AM64L-G09RevC.01 23-Sep-2011

 ------------------------------------------------
 # mpw1pw91/6-31+G** nmr scrf=(pcm,solvent=water)
 ------------------------------------------------

 99/9=1/99;
 -------
 comment
 -------
 Charge =  0 Multiplicity = 1

                         Standard orientation:
 ---------------------------------------------------------------------
 Center     Atomic      Atomic             Coordinates (Angstroms)
 Number     Number       Type             X           Y           Z
 ---------------------------------------------------------------------
      1          6           0       -2.421664   -0.741239    0.299010
      2          6           0       -1.221581   -0.016888    0.946515
      3          7           0        0.005168   -0.841206    0.633011
      4          6           0       -0.444723   -2.014308   -0.156803
      5          6           0       -1.788934   -1.627666   -0.786070
      6          6           0        0.975454    0.030749   -0.064792
      7          6           0        0.617678    1.446379    0.428743
      8          6           0       -0.921351    1.414966    0.460446
      9          1           0       -2.920327   -1.365557    1.048384
     10          1           0       -3.160001   -0.037830   -0.095547
     11          1           0       -1.355935    0.032738    2.033092
     12          1           0       -0.581002   -2.876605    0.509299
     13          1           0        0.316791   -2.288746   -0.891209
     14          1           0       -2.403968   -2.496787   -1.041102
     15          1           0       -1.626357   -1.055617   -1.708417
     16          1           0        0.832057    0.004253   -1.160312
     17          1           0        1.003776    1.592082    1.444140
     18          1           0       -1.338419    2.166987    1.133741
     19          8           0       -1.445194    1.766344   -0.830461
     20          1           0       -1.177120    1.095736   -1.481904
     21          8           0        1.142097    2.498318   -0.367693
     22          1           0        0.503223    2.604394   -1.098323
     23          6           0        2.432024   -0.319228    0.219382
     24          1           0        3.070230    0.447879   -0.232064
     25          1           0        2.608877   -0.315856    1.304115
     26          8           0        2.855314   -1.562729   -0.353801
     27          1           0        2.412846   -2.270688    0.142083
 ---------------------------------------------------------------------

 SCF Done:  E(RmPW1PW91) =  -594.196128171     A.U. after   13 cycles

      1  C    Isotropic =   168.5826   Anisotropy =    23.7886

      2  C    Isotropic =   128.5292   Anisotropy =    54.3239

      3  N    Isotropic =   191.5671   Anisotropy =    70.5141

      4  C    Isotropic =   140.6640   Anisotropy =    56.9519

      5  C    Isotropic =   168.1210   Anisotropy =    24.4043

      6  C    Isotropic =   125.4322   Anisotropy =    41.7679

      7  C    Isotropic =   120.6201   Anisotropy =    52.3475

      8  C    Isotropic =   118.9086   Anisotropy =    26.8412

      9  H    Isotropic =    29.8452   Anisotropy =    12.7004

     10  H    Isotropic =    29.4283   Anisotropy =     9.1415

     11  H    Isotropic =    27.8473   Anisotropy =     9.2201

     12  H    Isotropic =    28.6958   Anisotropy =    11.7427

     13  H    Isotropic =    28.6353   Anisotropy =     7.5835

     14  H    Isotropic =    29.9350   Anisotropy =    12.8629

     15  H    Isotropic =    30.2121   Anisotropy =     8.0036

     16  H    Isotropic =    29.1352   Anisotropy =     4.7326

     17  H    Isotropic =    27.9681   Anisotropy =     4.9491

     18  H    Isotropic =    27.7401   Anisotropy =     8.5362

     19  O    Isotropic =   309.1136   Anisotropy =    75.0170

     20  H    Isotropic =    31.0364   Anisotropy =    14.5800

     21  O    Isotropic =   307.7185   Anisotropy =    32.9185

     22  H    Isotropic =    28.9646   Anisotropy =    14.7346

     23  C    Isotropic =   124.9128   Anisotropy =    49.8798

     24  H    Isotropic =    27.7053   Anisotropy =     5.3603

     25  H    Isotropic =    27.9821   Anisotropy =     5.5840

     26  O    Isotropic =   307.2789   Anisotropy =    22.8920

     27  H    Isotropic =    30.0429   Anisotropy =    14.5881

 The electronic state is 1-A.
 Alpha  occ. eigenvalues --  -19.27214 -19.25940 -19.25699 -14.41693 -10.31024
 Alpha  occ. eigenvalues --  -10.30851 -10.29550 -10.28264 -10.28244 -10.27138
 Alpha  occ. eigenvalues --  -10.24952 -10.24928  -1.08549  -1.05762  -1.05396
 Alpha  occ. eigenvalues --   -0.96595  -0.83023  -0.79592  -0.75739  -0.71906
 Alpha  occ. eigenvalues --   -0.67170  -0.62638  -0.60859  -0.58761  -0.55040
 Alpha  occ. eigenvalues --   -0.54068  -0.52384  -0.51055  -0.48551  -0.47236
 Alpha  occ. eigenvalues --   -0.45983  -0.45487  -0.43721  -0.42600  -0.40587
 Alpha  occ. eigenvalues --   -0.40237  -0.38859  -0.38233  -0.36412  -0.35703
 Alpha  occ. eigenvalues --   -0.35277  -0.34782  -0.34449  -0.31649  -0.30525
 Alpha  occ. eigenvalues --   -0.28927  -0.23620
 Alpha virt. eigenvalues --    0.00237   0.01178   0.01627   0.02484   0.03796
 Alpha virt. eigenvalues --    0.04239   0.04584   0.04915   0.05387   0.07111
 Alpha virt. eigenvalues --    0.07586   0.08016   0.08344   0.08483   0.09591

 Mulliken atomic charges:
              1
     1  C   -0.543692
     2  C    0.029647
     3  N   -0.228026
     4  C   -0.251944
     5  C   -0.226740
     6  C    0.179625
     7  C   -0.234181
     8  C    0.154488
     9  H    0.182277
    10  H    0.189681
    11  H    0.175112
    12  H    0.169698
    13  H    0.168773
    14  H    0.179683
    15  H    0.159853
    16  H    0.163606
    17  H    0.184705
    18  H    0.178751
    19  O   -0.577918
    20  H    0.389225
    21  O   -0.516207
    22  H    0.384059
    23  C   -0.475631
    24  H    0.171064
    25  H    0.165831
    26  O   -0.546830
    27  H    0.375091
 Sum of Mulliken atomic charges =   0.00000

 Dipole moment (field-independent basis, Debye):
    X=             -3.5140    Y=             -2.3253    Z=              0.6152  Tot=              4.2584
 Quadrupole moment (field-independent basis, Debye-Ang):
   XX=            -83.5740   YY=            -78.2233   ZZ=            -69.6098
   XY=              3.2379   XZ=              2.7576   YZ=              0.4662

 Normal termination of Gaussian 09 at Fri May 17 12:39:40 2024.
