 Gaussian 09, Revision C.01,
 Gaussian 09:  AM64L-G09RevC.01 23-Sep-2011

 ------------------------------------------------
 # mpw1pw91/6-31+G** nmr scrf=(pcm,solvent=water)
 ------------------------------------------------

 99/9=1/99;
 -------
 comment
 -------
 Charge =  0 Multiplicity = 1

                         Standard orientation:
 ---------------------------------------------------------------------
 Center     Atomic      Atomic             Coordinates (Angstroms)
 Number     Number       Type             X           Y           Z
 ---------------------------------------------------------------------
      1          6           0       -2.542405    0.039179    0.227042
      2          6           0       -1.104670    0.327445    0.706154
      3          7           0       -0.294080   -0.910850    0.409046
      4          6           0       -1.220006   -1.895554   -0.203906
      5          6           0       -2.361281   -1.074243   -0.815610
      6          6           0        0.828137   -0.521059   -0.484836
      7          6           0        1.050450    0.954466   -0.156527
      8          6           0       -0.380470    1.474123   -0.021415
      9          1           0       -3.151958   -0.326076    1.061675
     10          1           0       -3.024217    0.939801   -0.167612
     11          1           0       -1.088319    0.537286    1.783339
     12          1           0       -1.613789   -2.561963    0.574271
     13          1           0       -0.684361   -2.517653   -0.927084
     14          1           0       -3.269539   -1.662495   -0.980520
     15          1           0       -2.050003   -0.653540   -1.779835
     16          1           0        0.553829   -0.591890   -1.550225
     17          1           0        1.558326    1.047022    0.815613
     18          1           0       -0.791686    1.608212   -1.028822
     19          8           0       -0.501331    2.748781    0.604408
     20          1           0       -0.164871    2.655298    1.513128
     21          8           0        1.819330    1.581142   -1.178388
     22          1           0        1.929977    2.510488   -0.915213
     23          6           0        2.039913   -1.419461   -0.243826
     24          1           0        1.820423   -2.435029   -0.607169
     25          1           0        2.903271   -1.043353   -0.802733
     26          8           0        2.398957   -1.448010    1.137513
     27          1           0        1.537814   -1.494837    1.597147
 ---------------------------------------------------------------------

 SCF Done:  E(RmPW1PW91) =  -594.202695512     A.U. after   13 cycles

      1  C    Isotropic =   163.1461   Anisotropy =    24.8595

      2  C    Isotropic =   126.5759   Anisotropy =    56.1253

      3  N    Isotropic =   204.6019   Anisotropy =    65.6256

      4  C    Isotropic =   142.2800   Anisotropy =    53.1347

      5  C    Isotropic =   171.4239   Anisotropy =    18.1656

      6  C    Isotropic =   126.3764   Anisotropy =    40.2199

      7  C    Isotropic =   119.9922   Anisotropy =    43.4057

      8  C    Isotropic =   111.0388   Anisotropy =    26.9222

      9  H    Isotropic =    29.7114   Anisotropy =    11.7155

     10  H    Isotropic =    29.6809   Anisotropy =     9.4475

     11  H    Isotropic =    28.5713   Anisotropy =     6.8210

     12  H    Isotropic =    28.9376   Anisotropy =    11.9767

     13  H    Isotropic =    28.8201   Anisotropy =     8.6388

     14  H    Isotropic =    30.0136   Anisotropy =    12.7364

     15  H    Isotropic =    29.8543   Anisotropy =     9.0669

     16  H    Isotropic =    28.9765   Anisotropy =     4.0899

     17  H    Isotropic =    27.6697   Anisotropy =     2.3533

     18  H    Isotropic =    28.1588   Anisotropy =     3.4628

     19  O    Isotropic =   291.5131   Anisotropy =    89.3916

     20  H    Isotropic =    30.8508   Anisotropy =    16.0112

     21  O    Isotropic =   302.6058   Anisotropy =    41.8531

     22  H    Isotropic =    29.3767   Anisotropy =    19.1614

     23  C    Isotropic =   135.3834   Anisotropy =    52.5000

     24  H    Isotropic =    27.9846   Anisotropy =     7.8415

     25  H    Isotropic =    27.9592   Anisotropy =     6.7008

     26  O    Isotropic =   330.9877   Anisotropy =    47.3350

     27  H    Isotropic =    28.7564   Anisotropy =    16.2805

 The electronic state is 1-A.
 Alpha  occ. eigenvalues --  -19.26387 -19.26188 -19.24874 -14.42250 -10.30500
 Alpha  occ. eigenvalues --  -10.30432 -10.29321 -10.28494 -10.28229 -10.27202
 Alpha  occ. eigenvalues --  -10.24867 -10.24699  -1.07587  -1.05862  -1.05281
 Alpha  occ. eigenvalues --   -0.96954  -0.82933  -0.79591  -0.75513  -0.71672
 Alpha  occ. eigenvalues --   -0.66887  -0.62595  -0.60792  -0.58165  -0.55918
 Alpha  occ. eigenvalues --   -0.53543  -0.50874  -0.50200  -0.49501  -0.47813
 Alpha  occ. eigenvalues --   -0.45519  -0.44790  -0.44206  -0.42444  -0.41503
 Alpha  occ. eigenvalues --   -0.39950  -0.37903  -0.37516  -0.36480  -0.36037
 Alpha  occ. eigenvalues --   -0.35565  -0.34425  -0.33889  -0.32436  -0.29346
 Alpha  occ. eigenvalues --   -0.28216  -0.24360
 Alpha virt. eigenvalues --    0.00660   0.01496   0.01595   0.02275   0.03692
 Alpha virt. eigenvalues --    0.03991   0.04195   0.04859   0.05312   0.07233
 Alpha virt. eigenvalues --    0.08009   0.08135   0.08431   0.09185   0.09370

 Mulliken atomic charges:
              1
     1  C   -0.532181
     2  C    0.182159
     3  N   -0.302953
     4  C   -0.258569
     5  C   -0.259474
     6  C    0.177405
     7  C   -0.068700
     8  C   -0.187653
     9  H    0.180222
    10  H    0.180184
    11  H    0.161986
    12  H    0.169676
    13  H    0.168556
    14  H    0.176183
    15  H    0.176278
    16  H    0.177883
    17  H    0.177470
    18  H    0.185128
    19  O   -0.530167
    20  H    0.374264
    21  O   -0.542640
    22  H    0.388163
    23  C   -0.338258
    24  H    0.149886
    25  H    0.167744
    26  O   -0.559636
    27  H    0.387043
 Sum of Mulliken atomic charges =   0.00000

 Dipole moment (field-independent basis, Debye):
    X=             -3.4345    Y=             -0.3439    Z=              0.2466  Tot=              3.4604
 Quadrupole moment (field-independent basis, Debye-Ang):
   XX=            -80.6585   YY=            -74.7811   ZZ=            -72.2598
   XY=              9.2610   XZ=             -1.9198   YZ=              7.0823

 Normal termination of Gaussian 09 at Fri May 17 12:25:33 2024.
