 Gaussian 09, Revision C.01,
 Gaussian 09:  AM64L-G09RevC.01 23-Sep-2011

 ------------------------------------------------
 # mpw1pw91/6-31+G** nmr scrf=(pcm,solvent=water)
 ------------------------------------------------

 99/9=1/99;
 -------
 comment
 -------
 Charge =  0 Multiplicity = 1

                         Standard orientation:
 ---------------------------------------------------------------------
 Center     Atomic      Atomic             Coordinates (Angstroms)
 Number     Number       Type             X           Y           Z
 ---------------------------------------------------------------------
      1          6           0        2.328720    0.238607   -0.445273
      2          6           0        0.852212    0.348150   -0.864595
      3          7           0        0.162670   -0.845159   -0.258524
      4          6           0        1.188084   -1.656322    0.447321
      5          6           0        2.513424   -1.266375   -0.211258
      6          6           0       -0.946511   -0.358936    0.595879
      7          6           0       -0.662648    1.129605    0.874153
      8          6           0        0.099116    1.603330   -0.370428
      9          1           0        3.004051    0.652366   -1.200595
     10          1           0        2.495820    0.783688    0.490601
     11          1           0        0.776320    0.306132   -1.959047
     12          1           0        0.964867   -2.725558    0.358438
     13          1           0        1.218851   -1.411971    1.519236
     14          1           0        2.637301   -1.790237   -1.166892
     15          1           0        3.375542   -1.505256    0.419058
     16          1           0       -0.957787   -0.926246    1.534221
     17          1           0       -1.580586    1.714499    1.019369
     18          1           0        0.793838    2.411820   -0.110689
     19          8           0       -0.869282    2.077880   -1.313509
     20          1           0       -0.401618    2.230115   -2.151969
     21          8           0        0.220881    1.303540    1.989958
     22          1           0       -0.196703    0.875772    2.756076
     23          6           0       -2.291447   -0.598771   -0.098315
     24          1           0       -3.117735   -0.338039    0.571220
     25          1           0       -2.371782    0.023510   -0.999611
     26          8           0       -2.437151   -1.981948   -0.426812
     27          1           0       -1.580353   -2.215988   -0.831744
 ---------------------------------------------------------------------

 SCF Done:  E(RmPW1PW91) =  -594.198084731     A.U. after   13 cycles

      1  C    Isotropic =   163.7185   Anisotropy =    24.2309

      2  C    Isotropic =   117.8165   Anisotropy =    45.3258

      3  N    Isotropic =   194.1429   Anisotropy =    86.0631

      4  C    Isotropic =   135.8237   Anisotropy =    62.5651

      5  C    Isotropic =   166.9479   Anisotropy =    19.8840

      6  C    Isotropic =   115.5201   Anisotropy =    25.6207

      7  C    Isotropic =   112.6175   Anisotropy =    25.6276

      8  C    Isotropic =   112.5942   Anisotropy =    24.7940

      9  H    Isotropic =    29.6155   Anisotropy =    10.4088

     10  H    Isotropic =    29.7316   Anisotropy =     7.2509

     11  H    Isotropic =    28.1524   Anisotropy =     7.4934

     12  H    Isotropic =    28.2687   Anisotropy =     9.3733

     13  H    Isotropic =    28.6112   Anisotropy =     7.9408

     14  H    Isotropic =    29.7084   Anisotropy =    10.8992

     15  H    Isotropic =    29.6472   Anisotropy =    11.7166

     16  H    Isotropic =    28.6344   Anisotropy =     6.2902

     17  H    Isotropic =    27.5086   Anisotropy =     5.1206

     18  H    Isotropic =    27.4508   Anisotropy =     4.5973

     19  O    Isotropic =   274.6828   Anisotropy =    66.9977

     20  H    Isotropic =    30.3497   Anisotropy =    17.9327

     21  O    Isotropic =   278.5594   Anisotropy =    86.6401

     22  H    Isotropic =    30.4957   Anisotropy =    17.9588

     23  C    Isotropic =   132.6060   Anisotropy =    51.1652

     24  H    Isotropic =    28.2689   Anisotropy =     6.5505

     25  H    Isotropic =    27.9574   Anisotropy =     6.9944

     26  O    Isotropic =   313.6209   Anisotropy =    36.5786

     27  H    Isotropic =    29.0606   Anisotropy =    15.6067

 The electronic state is 1-A.
 Alpha  occ. eigenvalues --  -19.25994 -19.25908 -19.24808 -14.41634 -10.30763
 Alpha  occ. eigenvalues --  -10.30602 -10.28922 -10.28086 -10.27947 -10.26882
 Alpha  occ. eigenvalues --  -10.24603 -10.24556  -1.07157  -1.05733  -1.05148
 Alpha  occ. eigenvalues --   -0.96098  -0.82729  -0.79259  -0.75146  -0.71919
 Alpha  occ. eigenvalues --   -0.66003  -0.60942  -0.60719  -0.58783  -0.56098
 Alpha  occ. eigenvalues --   -0.52886  -0.52449  -0.49900  -0.48703  -0.46818
 Alpha  occ. eigenvalues --   -0.45553  -0.44583  -0.43045  -0.41731  -0.41512
 Alpha  occ. eigenvalues --   -0.39604  -0.39274  -0.37169  -0.36748  -0.35848
 Alpha  occ. eigenvalues --   -0.34775  -0.34423  -0.32794  -0.30779  -0.29650
 Alpha  occ. eigenvalues --   -0.29189  -0.23469
 Alpha virt. eigenvalues --    0.00801   0.01333   0.02050   0.02477   0.03506
 Alpha virt. eigenvalues --    0.04052   0.04279   0.04762   0.05573   0.07311
 Alpha virt. eigenvalues --    0.07763   0.08546   0.08672   0.08965   0.09128

 Mulliken atomic charges:
              1
     1  C   -0.439681
     2  C   -0.063306
     3  N   -0.265128
     4  C   -0.098696
     5  C   -0.458231
     6  C    0.061490
     7  C   -0.093743
     8  C    0.030478
     9  H    0.175596
    10  H    0.183200
    11  H    0.158941
    12  H    0.164347
    13  H    0.161698
    14  H    0.177448
    15  H    0.177428
    16  H    0.165717
    17  H    0.168382
    18  H    0.173581
    19  O   -0.545819
    20  H    0.377286
    21  O   -0.542183
    22  H    0.380585
    23  C   -0.219308
    24  H    0.162861
    25  H    0.164830
    26  O   -0.539155
    27  H    0.381381
 Sum of Mulliken atomic charges =   0.00000

 Dipole moment (field-independent basis, Debye):
    X=              3.5189    Y=              0.9580    Z=              0.4694  Tot=              3.6770
 Quadrupole moment (field-independent basis, Debye-Ang):
   XX=            -79.6415   YY=            -80.3646   ZZ=            -64.4597
   XY=             -6.6526   XZ=             -7.7822   YZ=             -5.0799

 Normal termination of Gaussian 09 at Fri May 17 12:12:43 2024.
