 Gaussian 09, Revision C.01,
 Gaussian 09:  AM64L-G09RevC.01 23-Sep-2011

 ------------------------------------------------
 # mpw1pw91/6-31+G** nmr scrf=(pcm,solvent=water)
 ------------------------------------------------

 99/9=1/99;
 -------
 comment
 -------
 Charge =  0 Multiplicity = 1

                         Standard orientation:
 ---------------------------------------------------------------------
 Center     Atomic      Atomic             Coordinates (Angstroms)
 Number     Number       Type             X           Y           Z
 ---------------------------------------------------------------------
      1          6           0        2.316411   -0.992106    0.229651
      2          6           0        1.286185   -0.091534   -0.470250
      3          7           0       -0.026584   -0.818223   -0.386941
      4          6           0        0.191062   -2.085392    0.339050
      5          6           0        1.678570   -2.387528    0.138399
      6          6           0       -1.037414    0.089567    0.187327
      7          6           0       -0.471008    1.491269   -0.100031
      8          6           0        1.025334    1.292847    0.128740
      9          1           0        3.306001   -0.936588   -0.233835
     10          1           0        2.419751   -0.698792    1.281676
     11          1           0        1.561019    0.046413   -1.525466
     12          1           0       -0.452143   -2.883848   -0.048176
     13          1           0       -0.034935   -1.974040    1.413184
     14          1           0        1.846379   -2.821543   -0.854900
     15          1           0        2.065190   -3.090180    0.883022
     16          1           0       -1.100876   -0.032126    1.283317
     17          1           0       -0.636843    1.758287   -1.153774
     18          1           0        1.201469    1.278243    1.214915
     19          8           0        1.854412    2.275053   -0.488324
     20          1           0        1.628720    3.127598   -0.079195
     21          8           0       -0.971523    2.519495    0.750910
     22          1           0       -1.853878    2.764517    0.427108
     23          6           0       -2.436624   -0.109600   -0.384533
     24          1           0       -3.107713    0.643244    0.044785
     25          1           0       -2.418561    0.032508   -1.474337
     26          8           0       -3.010860   -1.379695   -0.052166
     27          1           0       -2.528826   -2.050098   -0.563202
 ---------------------------------------------------------------------

 SCF Done:  E(RmPW1PW91) =  -594.198484681     A.U. after   13 cycles

      1  C    Isotropic =   162.6167   Anisotropy =    25.4372

      2  C    Isotropic =   128.1851   Anisotropy =    54.1520

      3  N    Isotropic =   196.2893   Anisotropy =    91.7764

      4  C    Isotropic =   136.6018   Anisotropy =    56.7277

      5  C    Isotropic =   163.9837   Anisotropy =    24.0720

      6  C    Isotropic =   121.9045   Anisotropy =    38.3260

      7  C    Isotropic =   113.6065   Anisotropy =    35.9467

      8  C    Isotropic =   113.3349   Anisotropy =    21.7998

      9  H    Isotropic =    29.4985   Anisotropy =     9.7515

     10  H    Isotropic =    30.0299   Anisotropy =     8.3011

     11  H    Isotropic =    28.1342   Anisotropy =     6.9360

     12  H    Isotropic =    28.4259   Anisotropy =     8.4315

     13  H    Isotropic =    28.9446   Anisotropy =     7.5702

     14  H    Isotropic =    29.4946   Anisotropy =    10.5827

     15  H    Isotropic =    29.4614   Anisotropy =    11.5075

     16  H    Isotropic =    28.8415   Anisotropy =     4.7458

     17  H    Isotropic =    27.8020   Anisotropy =     1.8677

     18  H    Isotropic =    27.7205   Anisotropy =     2.5909

     19  O    Isotropic =   297.8695   Anisotropy =    39.5463

     20  H    Isotropic =    29.4050   Anisotropy =    18.5103

     21  O    Isotropic =   298.4162   Anisotropy =    37.2945

     22  H    Isotropic =    29.7992   Anisotropy =    19.4216

     23  C    Isotropic =   125.8439   Anisotropy =    49.8933

     24  H    Isotropic =    27.9198   Anisotropy =     5.3083

     25  H    Isotropic =    28.0181   Anisotropy =     5.5418

     26  O    Isotropic =   307.5464   Anisotropy =    23.9073

     27  H    Isotropic =    30.0826   Anisotropy =    14.8481

 The electronic state is 1-A.
 Alpha  occ. eigenvalues --  -19.26545 -19.26047 -19.25745 -14.41494 -10.30791
 Alpha  occ. eigenvalues --  -10.30512 -10.29697 -10.28033 -10.27987 -10.27114
 Alpha  occ. eigenvalues --  -10.24743 -10.24707  -1.07617  -1.05851  -1.05716
 Alpha  occ. eigenvalues --   -0.96796  -0.83293  -0.79625  -0.75480  -0.71956
 Alpha  occ. eigenvalues --   -0.66424  -0.61753  -0.60754  -0.58268  -0.56050
 Alpha  occ. eigenvalues --   -0.53718  -0.52776  -0.50819  -0.49111  -0.46992
 Alpha  occ. eigenvalues --   -0.45951  -0.44513  -0.43450  -0.42960  -0.41174
 Alpha  occ. eigenvalues --   -0.39538  -0.38817  -0.37436  -0.36565  -0.35850
 Alpha  occ. eigenvalues --   -0.35042  -0.34898  -0.33807  -0.30938  -0.30815
 Alpha  occ. eigenvalues --   -0.28665  -0.23175
 Alpha virt. eigenvalues --    0.00818   0.01051   0.01864   0.02280   0.03060
 Alpha virt. eigenvalues --    0.04211   0.04717   0.04962   0.05642   0.06690
 Alpha virt. eigenvalues --    0.07632   0.08078   0.08820   0.09126   0.09540

 Mulliken atomic charges:
              1
     1  C   -0.386733
     2  C   -0.104942
     3  N   -0.185373
     4  C   -0.201578
     5  C   -0.401301
     6  C    0.138904
     7  C   -0.175226
     8  C    0.035500
     9  H    0.178892
    10  H    0.170389
    11  H    0.170470
    12  H    0.157223
    13  H    0.156740
    14  H    0.180201
    15  H    0.178808
    16  H    0.167135
    17  H    0.181109
    18  H    0.170456
    19  O   -0.551412
    20  H    0.385679
    21  O   -0.546686
    22  H    0.389701
    23  C   -0.274355
    24  H    0.158627
    25  H    0.166222
    26  O   -0.532695
    27  H    0.374247
 Sum of Mulliken atomic charges =   0.00000

 Dipole moment (field-independent basis, Debye):
    X=              0.1807    Y=              0.0098    Z=             -0.2073  Tot=              0.2752
 Quadrupole moment (field-independent basis, Debye-Ang):
   XX=            -80.4342   YY=            -67.0685   ZZ=            -75.5578
   XY=            -10.6786   XZ=              6.6273   YZ=              0.3195

 Normal termination of Gaussian 09 at Fri May 17 12:46:37 2024.
