 Gaussian 09, Revision C.01,
 Gaussian 09:  AM64L-G09RevC.01 23-Sep-2011

 ------------------------------------------------
 # mpw1pw91/6-31+G** nmr scrf=(pcm,solvent=water)
 ------------------------------------------------

 99/9=1/99;
 -------
 comment
 -------
 Charge =  0 Multiplicity = 1

                         Standard orientation:
 ---------------------------------------------------------------------
 Center     Atomic      Atomic             Coordinates (Angstroms)
 Number     Number       Type             X           Y           Z
 ---------------------------------------------------------------------
      1          6           0        2.334362    0.188817   -0.379889
      2          6           0        0.878356    0.329576   -0.855879
      3          7           0        0.141556   -0.839863   -0.260186
      4          6           0        1.133340   -1.706775    0.429389
      5          6           0        2.484261   -1.324498   -0.181997
      6          6           0       -0.951803   -0.328390    0.602881
      7          6           0       -0.664744    1.160490    0.840399
      8          6           0        0.136507    1.604512   -0.405865
      9          1           0        3.046198    0.613488   -1.094523
     10          1           0        2.465103    0.704704    0.578203
     11          1           0        0.843054    0.276658   -1.951602
     12          1           0        0.887310   -2.765589    0.290403
     13          1           0        1.144512   -1.509962    1.511260
     14          1           0        2.626150   -1.823712   -1.148323
     15          1           0        3.322815   -1.597846    0.465934
     16          1           0       -0.941160   -0.864879    1.557811
     17          1           0       -1.577010    1.761987    0.947932
     18          1           0        0.832819    2.404677   -0.136682
     19          8           0       -0.698024    2.165684   -1.425795
     20          1           0       -1.149822    1.439233   -1.885538
     21          8           0        0.139027    1.251998    2.025993
     22          1           0        0.400803    2.183453    2.124612
     23          6           0       -2.312906   -0.591385   -0.052617
     24          1           0       -3.123218   -0.350312    0.643000
     25          1           0       -2.443303    0.034683   -0.948373
     26          8           0       -2.437070   -1.972263   -0.388156
     27          1           0       -1.580844   -2.184964   -0.807675
 ---------------------------------------------------------------------

 SCF Done:  E(RmPW1PW91) =  -594.196593113     A.U. after   13 cycles

      1  C    Isotropic =   162.6480   Anisotropy =    24.6904

      2  C    Isotropic =   119.2507   Anisotropy =    45.0070

      3  N    Isotropic =   196.3428   Anisotropy =    85.2304

      4  C    Isotropic =   135.7229   Anisotropy =    64.0865

      5  C    Isotropic =   166.6562   Anisotropy =    21.0352

      6  C    Isotropic =   118.3153   Anisotropy =    32.6457

      7  C    Isotropic =   111.2533   Anisotropy =    24.1789

      8  C    Isotropic =   110.3653   Anisotropy =    24.0378

      9  H    Isotropic =    29.5123   Anisotropy =    10.2827

     10  H    Isotropic =    29.7307   Anisotropy =     7.2531

     11  H    Isotropic =    28.0930   Anisotropy =     7.6454

     12  H    Isotropic =    28.2374   Anisotropy =     9.3044

     13  H    Isotropic =    28.6434   Anisotropy =     8.0137

     14  H    Isotropic =    29.7040   Anisotropy =    10.9129

     15  H    Isotropic =    29.6208   Anisotropy =    11.7371

     16  H    Isotropic =    28.4670   Anisotropy =     6.2271

     17  H    Isotropic =    27.5619   Anisotropy =     5.0621

     18  H    Isotropic =    27.8385   Anisotropy =     4.2463

     19  O    Isotropic =   267.8139   Anisotropy =    32.4432

     20  H    Isotropic =    30.5154   Anisotropy =    13.5187

     21  O    Isotropic =   276.7840   Anisotropy =    83.6245

     22  H    Isotropic =    30.3077   Anisotropy =    18.4848

     23  C    Isotropic =   131.7378   Anisotropy =    50.2822

     24  H    Isotropic =    28.0802   Anisotropy =     6.8646

     25  H    Isotropic =    28.5122   Anisotropy =     6.5153

     26  O    Isotropic =   310.7985   Anisotropy =    33.1093

     27  H    Isotropic =    28.8251   Anisotropy =    15.6527

 The electronic state is 1-A.
 Alpha  occ. eigenvalues --  -19.26258 -19.26104 -19.25120 -14.41844 -10.30876
 Alpha  occ. eigenvalues --  -10.30768 -10.29660 -10.28273 -10.28190 -10.27002
 Alpha  occ. eigenvalues --  -10.24719 -10.24676  -1.07300  -1.05895  -1.05552
 Alpha  occ. eigenvalues --   -0.96279  -0.82925  -0.79225  -0.75554  -0.71689
 Alpha  occ. eigenvalues --   -0.66971  -0.62006  -0.60990  -0.58802  -0.55062
 Alpha  occ. eigenvalues --   -0.54795  -0.51066  -0.50192  -0.49356  -0.46777
 Alpha  occ. eigenvalues --   -0.45349  -0.44527  -0.44147  -0.42973  -0.39783
 Alpha  occ. eigenvalues --   -0.39505  -0.39354  -0.38085  -0.37364  -0.35905
 Alpha  occ. eigenvalues --   -0.34994  -0.34604  -0.33852  -0.31609  -0.29725
 Alpha  occ. eigenvalues --   -0.28386  -0.23881
 Alpha virt. eigenvalues --    0.00746   0.01371   0.01979   0.02642   0.03590
 Alpha virt. eigenvalues --    0.03696   0.04381   0.04730   0.05277   0.06983
 Alpha virt. eigenvalues --    0.07466   0.08430   0.08701   0.09011   0.09429

 Mulliken atomic charges:
              1
     1  C   -0.423529
     2  C   -0.022927
     3  N   -0.305487
     4  C   -0.136981
     5  C   -0.440332
     6  C    0.000528
     7  C   -0.065050
     8  C   -0.100314
     9  H    0.177577
    10  H    0.183423
    11  H    0.172491
    12  H    0.165000
    13  H    0.162613
    14  H    0.178467
    15  H    0.178670
    16  H    0.177523
    17  H    0.175018
    18  H    0.176485
    19  O   -0.513299
    20  H    0.371821
    21  O   -0.541594
    22  H    0.379822
    23  C   -0.099258
    24  H    0.171230
    25  H    0.122802
    26  O   -0.529000
    27  H    0.384303
 Sum of Mulliken atomic charges =   0.00000

 Dipole moment (field-independent basis, Debye):
    X=              3.1440    Y=              1.6841    Z=              0.1467  Tot=              3.5696
 Quadrupole moment (field-independent basis, Debye-Ang):
   XX=            -75.4800   YY=            -77.5733   ZZ=            -74.9479
   XY=             -5.8950   XZ=             -1.1792   YZ=              5.5654

 Normal termination of Gaussian 09 at Fri May 17 12:42:39 2024.
