 Gaussian 09, Revision C.01,
 Gaussian 09:  AM64L-G09RevC.01 23-Sep-2011

 ------------------------------------------------
 # mpw1pw91/6-31+G** nmr scrf=(pcm,solvent=water)
 ------------------------------------------------

 99/9=1/99;
 -------
 comment
 -------
 Charge =  0 Multiplicity = 1

                         Standard orientation:
 ---------------------------------------------------------------------
 Center     Atomic      Atomic             Coordinates (Angstroms)
 Number     Number       Type             X           Y           Z
 ---------------------------------------------------------------------
      1          6           0        2.565768    0.247348    0.413622
      2          6           0        1.298025    0.519238   -0.408172
      3          7           0        0.576510   -0.801006   -0.498530
      4          6           0        1.415166   -1.834892    0.144155
      5          6           0        2.829366   -1.243194    0.149043
      6          6           0       -0.758809   -0.629799    0.091415
      7          6           0       -1.062217    0.847436   -0.163868
      8          6           0        0.270400    1.519273    0.157877
      9          1           0        3.400982    0.894620    0.128128
     10          1           0        2.363757    0.406648    1.480711
     11          1           0        1.570554    0.856277   -1.417311
     12          1           0        1.360960   -2.786004   -0.397681
     13          1           0        1.081361   -2.025440    1.177326
     14          1           0        3.303254   -1.378335   -0.830962
     15          1           0        3.471689   -1.711804    0.901095
     16          1           0       -0.741997   -0.785639    1.186002
     17          1           0       -1.291667    1.004746   -1.227566
     18          1           0        0.367832    1.590923    1.250138
     19          8           0        0.319472    2.820619   -0.424572
     20          1           0        1.122337    3.256040   -0.093548
     21          8           0       -2.168847    1.268103    0.638955
     22          1           0       -2.445370    2.142810    0.317952
     23          6           0       -1.818805   -1.571023   -0.481759
     24          1           0       -1.924867   -1.396595   -1.563545
     25          1           0       -1.521246   -2.615510   -0.338529
     26          8           0       -3.073433   -1.405041    0.188260
     27          1           0       -3.204043   -0.441471    0.282475
 ---------------------------------------------------------------------

 SCF Done:  E(RmPW1PW91) =  -594.200292867     A.U. after   13 cycles

      1  C    Isotropic =   162.8321   Anisotropy =    24.6739

      2  C    Isotropic =   124.9226   Anisotropy =    52.2631

      3  N    Isotropic =   201.3671   Anisotropy =    78.5128

      4  C    Isotropic =   139.0757   Anisotropy =    58.2932

      5  C    Isotropic =   164.2899   Anisotropy =    23.4286

      6  C    Isotropic =   126.7879   Anisotropy =    52.5301

      7  C    Isotropic =   110.0457   Anisotropy =    32.2375

      8  C    Isotropic =   112.0797   Anisotropy =    17.9777

      9  H    Isotropic =    29.5572   Anisotropy =     9.6695

     10  H    Isotropic =    30.1003   Anisotropy =     7.9023

     11  H    Isotropic =    28.3235   Anisotropy =     6.9248

     12  H    Isotropic =    28.4434   Anisotropy =     9.4865

     13  H    Isotropic =    29.1111   Anisotropy =     7.9817

     14  H    Isotropic =    29.6294   Anisotropy =    10.7682

     15  H    Isotropic =    29.4940   Anisotropy =    11.5220

     16  H    Isotropic =    28.8128   Anisotropy =     3.7902

     17  H    Isotropic =    27.3223   Anisotropy =     2.3385

     18  H    Isotropic =    27.6952   Anisotropy =     2.9657

     19  O    Isotropic =   294.6083   Anisotropy =    26.0070

     20  H    Isotropic =    29.7489   Anisotropy =    18.8422

     21  O    Isotropic =   294.2420   Anisotropy =    37.8605

     22  H    Isotropic =    28.9840   Anisotropy =    19.3958

     23  C    Isotropic =   126.5018   Anisotropy =    57.2392

     24  H    Isotropic =    27.8465   Anisotropy =     4.2751

     25  H    Isotropic =    27.7743   Anisotropy =     4.7393

     26  O    Isotropic =   314.4455   Anisotropy =    40.3554

     27  H    Isotropic =    28.2388   Anisotropy =    19.7291

 The electronic state is 1-A.
 Alpha  occ. eigenvalues --  -19.27203 -19.26243 -19.24802 -14.41638 -10.31052
 Alpha  occ. eigenvalues --  -10.30565 -10.29365 -10.28344 -10.27895 -10.26992
 Alpha  occ. eigenvalues --  -10.24779 -10.24750  -1.08063  -1.06191  -1.04830
 Alpha  occ. eigenvalues --   -0.96973  -0.83374  -0.79632  -0.75045  -0.71826
 Alpha  occ. eigenvalues --   -0.66824  -0.61503  -0.60662  -0.58950  -0.56134
 Alpha  occ. eigenvalues --   -0.54172  -0.52293  -0.50199  -0.49056  -0.46890
 Alpha  occ. eigenvalues --   -0.46307  -0.43882  -0.43239  -0.42559  -0.41648
 Alpha  occ. eigenvalues --   -0.40184  -0.39535  -0.38391  -0.36101  -0.35672
 Alpha  occ. eigenvalues --   -0.35148  -0.34733  -0.33384  -0.31160  -0.29521
 Alpha  occ. eigenvalues --   -0.29297  -0.23375
 Alpha virt. eigenvalues --    0.00611   0.01407   0.01943   0.02291   0.03448
 Alpha virt. eigenvalues --    0.04352   0.04483   0.05004   0.05362   0.06616
 Alpha virt. eigenvalues --    0.07748   0.08137   0.08982   0.09264   0.09601

 Mulliken atomic charges:
              1
     1  C   -0.356372
     2  C   -0.024660
     3  N   -0.112959
     4  C   -0.171995
     5  C   -0.412014
     6  C   -0.279570
     7  C   -0.017882
     8  C   -0.001339
     9  H    0.179423
    10  H    0.171552
    11  H    0.172808
    12  H    0.167642
    13  H    0.153399
    14  H    0.180159
    15  H    0.179167
    16  H    0.170482
    17  H    0.187536
    18  H    0.173558
    19  O   -0.562065
    20  H    0.390390
    21  O   -0.582536
    22  H    0.400086
    23  C   -0.165045
    24  H    0.157093
    25  H    0.163678
    26  O   -0.552757
    27  H    0.392221
 Sum of Mulliken atomic charges =   0.00000

 Dipole moment (field-independent basis, Debye):
    X=              4.7678    Y=              2.5888    Z=              0.5620  Tot=              5.4543
 Quadrupole moment (field-independent basis, Debye-Ang):
   XX=            -76.2536   YY=            -70.9892   ZZ=            -76.2651
   XY=             -6.5854   XZ=              5.7955   YZ=              1.9897

 Normal termination of Gaussian 09 at Fri May 17 12:33:00 2024.
