 Gaussian 09, Revision C.01,
 Gaussian 09:  AM64L-G09RevC.01 23-Sep-2011

 ------------------------------------------------
 # mpw1pw91/6-31+G** nmr scrf=(pcm,solvent=water)
 ------------------------------------------------

 99/9=1/99;
 -------
 comment
 -------
 Charge =  0 Multiplicity = 1

                         Standard orientation:
 ---------------------------------------------------------------------
 Center     Atomic      Atomic             Coordinates (Angstroms)
 Number     Number       Type             X           Y           Z
 ---------------------------------------------------------------------
      1          6           0        2.579647    0.230304    0.396341
      2          6           0        1.303406    0.505405   -0.412419
      3          7           0        0.570934   -0.808859   -0.489527
      4          6           0        1.400750   -1.840722    0.167626
      5          6           0        2.821933   -1.267221    0.150556
      6          6           0       -0.764652   -0.614009    0.095597
      7          6           0       -1.051552    0.869559   -0.161614
      8          6           0        0.296135    1.515974    0.154069
      9          1           0        3.417516    0.862950    0.087435
     10          1           0        2.396342    0.408942    1.463308
     11          1           0        1.570020    0.834352   -1.426061
     12          1           0        1.329681   -2.801053   -0.355644
     13          1           0        1.072238   -2.007430    1.206836
     14          1           0        3.284341   -1.422592   -0.831951
     15          1           0        3.466063   -1.732492    0.903099
     16          1           0       -0.750313   -0.765712    1.191834
     17          1           0       -1.273411    1.021161   -1.230213
     18          1           0        0.392956    1.585161    1.247354
     19          8           0        0.500467    2.799793   -0.435571
     20          1           0       -0.131984    3.406947   -0.016159
     21          8           0       -2.099482    1.403734    0.642564
     22          1           0       -2.844762    0.782768    0.523639
     23          6           0       -1.831783   -1.539723   -0.484564
     24          1           0       -1.913988   -1.393374   -1.565821
     25          1           0       -1.583855   -2.593085   -0.298403
     26          8           0       -3.130592   -1.229688    0.055143
     27          1           0       -3.113845   -1.472646    0.996801
 ---------------------------------------------------------------------

 SCF Done:  E(RmPW1PW91) =  -594.200157157     A.U. after   13 cycles

      1  C    Isotropic =   162.3285   Anisotropy =    25.5037

      2  C    Isotropic =   126.8134   Anisotropy =    54.3764

      3  N    Isotropic =   201.1654   Anisotropy =    79.8415

      4  C    Isotropic =   139.0055   Anisotropy =    58.2634

      5  C    Isotropic =   164.1722   Anisotropy =    23.2909

      6  C    Isotropic =   124.2559   Anisotropy =    52.8017

      7  C    Isotropic =   109.0289   Anisotropy =    27.2093

      8  C    Isotropic =   112.7313   Anisotropy =    22.1598

      9  H    Isotropic =    29.4910   Anisotropy =     9.6579

     10  H    Isotropic =    29.9948   Anisotropy =     8.0022

     11  H    Isotropic =    28.1743   Anisotropy =     6.8571

     12  H    Isotropic =    28.4752   Anisotropy =     9.4085

     13  H    Isotropic =    29.1567   Anisotropy =     8.0004

     14  H    Isotropic =    29.5853   Anisotropy =    10.7449

     15  H    Isotropic =    29.4862   Anisotropy =    11.5367

     16  H    Isotropic =    29.1012   Anisotropy =     4.2435

     17  H    Isotropic =    27.3781   Anisotropy =     2.0331

     18  H    Isotropic =    27.6647   Anisotropy =     2.5871

     19  O    Isotropic =   296.5871   Anisotropy =    40.0242

     20  H    Isotropic =    29.4651   Anisotropy =    18.5851

     21  O    Isotropic =   288.5507   Anisotropy =    36.7591

     22  H    Isotropic =    27.9972   Anisotropy =    19.8967

     23  C    Isotropic =   125.9971   Anisotropy =    58.2854

     24  H    Isotropic =    28.0162   Anisotropy =     4.0541

     25  H    Isotropic =    27.4674   Anisotropy =     5.2739

     26  O    Isotropic =   311.9274   Anisotropy =    66.3811

     27  H    Isotropic =    30.5513   Anisotropy =    16.7641

 The electronic state is 1-A.
 Alpha  occ. eigenvalues --  -19.26951 -19.25984 -19.25377 -14.41634 -10.30434
 Alpha  occ. eigenvalues --  -10.30206 -10.30053 -10.28262 -10.27967 -10.26997
 Alpha  occ. eigenvalues --  -10.24742 -10.24677  -1.07458  -1.06533  -1.05111
 Alpha  occ. eigenvalues --   -0.96914  -0.83160  -0.79647  -0.75232  -0.71674
 Alpha  occ. eigenvalues --   -0.66772  -0.61908  -0.60649  -0.58237  -0.55482
 Alpha  occ. eigenvalues --   -0.54433  -0.52056  -0.50113  -0.49640  -0.47290
 Alpha  occ. eigenvalues --   -0.45238  -0.44736  -0.43874  -0.42650  -0.41216
 Alpha  occ. eigenvalues --   -0.40212  -0.38376  -0.37669  -0.37076  -0.35627
 Alpha  occ. eigenvalues --   -0.35173  -0.34429  -0.34040  -0.31651  -0.29553
 Alpha  occ. eigenvalues --   -0.28799  -0.23419
 Alpha virt. eigenvalues --    0.00669   0.01508   0.01909   0.02084   0.03616
 Alpha virt. eigenvalues --    0.04316   0.04722   0.04851   0.05371   0.06870
 Alpha virt. eigenvalues --    0.07576   0.08050   0.08798   0.09175   0.09635

 Mulliken atomic charges:
              1
     1  C   -0.396018
     2  C   -0.050543
     3  N   -0.108293
     4  C   -0.203448
     5  C   -0.392174
     6  C   -0.379774
     7  C    0.034351
     8  C    0.077155
     9  H    0.178941
    10  H    0.170152
    11  H    0.170863
    12  H    0.167578
    13  H    0.152553
    14  H    0.179822
    15  H    0.178958
    16  H    0.166214
    17  H    0.175007
    18  H    0.169283
    19  O   -0.559439
    20  H    0.387003
    21  O   -0.559143
    22  H    0.403279
    23  C   -0.114274
    24  H    0.179599
    25  H    0.169592
    26  O   -0.597253
    27  H    0.400009
 Sum of Mulliken atomic charges =   0.00000

 Dipole moment (field-independent basis, Debye):
    X=              0.9738    Y=             -3.1660    Z=              2.7363  Tot=              4.2964
 Quadrupole moment (field-independent basis, Debye-Ang):
   XX=            -75.3711   YY=            -73.4028   ZZ=            -73.2056
   XY=             -0.5467   XZ=             -1.0266   YZ=             -1.5588

 Normal termination of Gaussian 09 at Fri May 17 12:18:25 2024.
