 Gaussian 09, Revision C.01,
 Gaussian 09:  AM64L-G09RevC.01 23-Sep-2011

 ------------------------------------------------
 # mpw1pw91/6-31+G** nmr scrf=(pcm,solvent=water)
 ------------------------------------------------

 99/9=1/99;
 -------
 comment
 -------
 Charge =  0 Multiplicity = 1

                         Standard orientation:
 ---------------------------------------------------------------------
 Center     Atomic      Atomic             Coordinates (Angstroms)
 Number     Number       Type             X           Y           Z
 ---------------------------------------------------------------------
      1          6           0        2.653419   -0.069854    0.083807
      2          6           0        1.344477    0.349268   -0.616805
      3          7           0        0.473310   -0.881683   -0.676303
      4          6           0        1.239632   -1.982399   -0.045543
      5          6           0        2.250760   -1.312198    0.892167
      6          6           0       -0.785249   -0.562863    0.031961
      7          6           0       -0.916735    0.956279   -0.113110
      8          6           0        0.518308    1.419477    0.110543
      9          1           0        3.410378   -0.339089   -0.662058
     10          1           0        3.063149    0.740345    0.695829
     11          1           0        1.545849    0.717900   -1.629884
     12          1           0        1.768551   -2.552383   -0.820741
     13          1           0        0.559183   -2.673954    0.459861
     14          1           0        3.098068   -1.958862    1.142152
     15          1           0        1.760702   -1.019901    1.829399
     16          1           0       -0.716416   -0.786080    1.110526
     17          1           0       -1.210044    1.203762   -1.146022
     18          1           0        0.721292    1.395149    1.191667
     19          8           0        0.828321    2.710214   -0.413917
     20          1           0        0.329932    3.357726    0.112276
     21          8           0       -1.823859    1.546472    0.813438
     22          1           0       -2.634932    1.005352    0.742178
     23          6           0       -1.985098   -1.316609   -0.526088
     24          1           0       -2.121053   -1.071130   -1.586878
     25          1           0       -1.839961   -2.402955   -0.441621
     26          8           0       -3.134242   -0.904858    0.238456
     27          1           0       -3.926713   -1.145335   -0.267949
 ---------------------------------------------------------------------

 SCF Done:  E(RmPW1PW91) =  -594.200839610     A.U. after   13 cycles

      1  C    Isotropic =   163.0967   Anisotropy =    24.4977

      2  C    Isotropic =   127.3680   Anisotropy =    57.2412

      3  N    Isotropic =   201.9290   Anisotropy =    66.2892

      4  C    Isotropic =   141.2867   Anisotropy =    53.4535

      5  C    Isotropic =   171.3030   Anisotropy =    19.8260

      6  C    Isotropic =   128.6254   Anisotropy =    50.1846

      7  C    Isotropic =   112.4492   Anisotropy =    26.0170

      8  C    Isotropic =   113.3111   Anisotropy =    28.8630

      9  H    Isotropic =    29.7900   Anisotropy =    11.7716

     10  H    Isotropic =    29.7109   Anisotropy =     9.4183

     11  H    Isotropic =    28.2333   Anisotropy =     6.9245

     12  H    Isotropic =    28.9559   Anisotropy =    11.9634

     13  H    Isotropic =    28.8946   Anisotropy =     8.5147

     14  H    Isotropic =    30.0637   Anisotropy =    12.6550

     15  H    Isotropic =    29.8078   Anisotropy =     8.7856

     16  H    Isotropic =    28.9466   Anisotropy =     5.3397

     17  H    Isotropic =    27.6167   Anisotropy =     1.6674

     18  H    Isotropic =    27.8460   Anisotropy =     3.5165

     19  O    Isotropic =   296.9661   Anisotropy =    42.3373

     20  H    Isotropic =    29.4219   Anisotropy =    18.9831

     21  O    Isotropic =   291.9342   Anisotropy =    33.4421

     22  H    Isotropic =    27.7312   Anisotropy =    20.2988

     23  C    Isotropic =   125.4937   Anisotropy =    60.1589

     24  H    Isotropic =    27.8422   Anisotropy =     3.7288

     25  H    Isotropic =    27.5148   Anisotropy =     4.9018

     26  O    Isotropic =   318.4032   Anisotropy =    81.3046

     27  H    Isotropic =    30.0073   Anisotropy =    21.5450

 The electronic state is 1-A.
 Alpha  occ. eigenvalues --  -19.26757 -19.25993 -19.25142 -14.41716 -10.30344
 Alpha  occ. eigenvalues --  -10.30073 -10.30031 -10.28237 -10.27920 -10.26981
 Alpha  occ. eigenvalues --  -10.24682 -10.24533  -1.07311  -1.06452  -1.04976
 Alpha  occ. eigenvalues --   -0.96874  -0.82855  -0.79671  -0.75513  -0.71706
 Alpha  occ. eigenvalues --   -0.66337  -0.61694  -0.60133  -0.58616  -0.56039
 Alpha  occ. eigenvalues --   -0.53626  -0.52365  -0.49860  -0.49338  -0.47798
 Alpha  occ. eigenvalues --   -0.46395  -0.44388  -0.43416  -0.42398  -0.40842
 Alpha  occ. eigenvalues --   -0.40319  -0.38838  -0.37415  -0.36001  -0.35589
 Alpha  occ. eigenvalues --   -0.35489  -0.34849  -0.33487  -0.31205  -0.29549
 Alpha  occ. eigenvalues --   -0.28904  -0.23738
 Alpha virt. eigenvalues --    0.00646   0.01402   0.01691   0.02132   0.03691
 Alpha virt. eigenvalues --    0.04027   0.04548   0.05001   0.05489   0.06663
 Alpha virt. eigenvalues --    0.07948   0.08236   0.08530   0.09282   0.09615

 Mulliken atomic charges:
              1
     1  C   -0.550009
     2  C    0.137780
     3  N   -0.149055
     4  C   -0.230317
     5  C   -0.227637
     6  C   -0.365485
     7  C   -0.054245
     8  C   -0.020288
     9  H    0.178451
    10  H    0.179283
    11  H    0.169553
    12  H    0.166324
    13  H    0.166738
    14  H    0.174192
    15  H    0.174800
    16  H    0.182767
    17  H    0.171505
    18  H    0.173532
    19  O   -0.553859
    20  H    0.385729
    21  O   -0.558753
    22  H    0.402619
    23  C   -0.089440
    24  H    0.171073
    25  H    0.162464
    26  O   -0.598941
    27  H    0.401219
 Sum of Mulliken atomic charges =   0.00000

 Dipole moment (field-independent basis, Debye):
    X=             -1.0763    Y=             -3.2290    Z=             -0.0664  Tot=              3.4043
 Quadrupole moment (field-independent basis, Debye-Ang):
   XX=            -62.8492   YY=            -73.3940   ZZ=            -76.7539
   XY=              1.6280   XZ=              8.8624   YZ=              2.1551

 Normal termination of Gaussian 09 at Fri May 17 12:14:43 2024.
