 Gaussian 09, Revision C.01,
 Gaussian 09:  AM64L-G09RevC.01 23-Sep-2011

 ------------------------------------------------
 # mpw1pw91/6-31+G** nmr scrf=(pcm,solvent=water)
 ------------------------------------------------

 99/9=1/99;
 -------
 comment
 -------
 Charge =  0 Multiplicity = 1

                         Standard orientation:
 ---------------------------------------------------------------------
 Center     Atomic      Atomic             Coordinates (Angstroms)
 Number     Number       Type             X           Y           Z
 ---------------------------------------------------------------------
      1          6           0        2.538442   -0.007337   -0.228437
      2          6           0        1.105999    0.303743   -0.710275
      3          7           0        0.275534   -0.920485   -0.405352
      4          6           0        1.183683   -1.917116    0.214255
      5          6           0        2.338797   -1.111783    0.820628
      6          6           0       -0.839908   -0.505833    0.483274
      7          6           0       -1.035217    0.973045    0.148757
      8          6           0        0.400047    1.466277    0.010807
      9          1           0        3.141752   -0.387365   -1.061005
     10          1           0        3.037849    0.885452    0.163288
     11          1           0        1.089625    0.512040   -1.786427
     12          1           0        1.565361   -2.596261   -0.558935
     13          1           0        0.637283   -2.524492    0.941982
     14          1           0        3.236985   -1.714347    0.989197
     15          1           0        2.034465   -0.680288    1.782306
     16          1           0       -0.570806   -0.577935    1.549910
     17          1           0       -1.540384    1.072712   -0.822490
     18          1           0        0.816606    1.595077    1.020485
     19          8           0        0.436186    2.707708   -0.691660
     20          1           0        1.347964    3.041284   -0.645509
     21          8           0       -1.793883    1.613228    1.170579
     22          1           0       -1.940747    2.529430    0.881406
     23          6           0       -2.068447   -1.380980    0.241354
     24          1           0       -1.873640   -2.396638    0.618229
     25          1           0       -2.928769   -0.980796    0.788152
     26          8           0       -2.414096   -1.417378   -1.143050
     27          1           0       -1.548312   -1.483047   -1.592266
 ---------------------------------------------------------------------

 SCF Done:  E(RmPW1PW91) =  -594.202833545     A.U. after   13 cycles

      1  C    Isotropic =   163.5249   Anisotropy =    24.2678

      2  C    Isotropic =   126.4647   Anisotropy =    55.6455

      3  N    Isotropic =   203.9379   Anisotropy =    67.2182

      4  C    Isotropic =   142.4562   Anisotropy =    52.9251

      5  C    Isotropic =   171.1993   Anisotropy =    18.5363

      6  C    Isotropic =   126.3099   Anisotropy =    40.9898

      7  C    Isotropic =   121.4288   Anisotropy =    48.2656

      8  C    Isotropic =   111.8769   Anisotropy =    23.6487

      9  H    Isotropic =    29.7448   Anisotropy =    11.7507

     10  H    Isotropic =    29.8118   Anisotropy =     9.5270

     11  H    Isotropic =    28.3644   Anisotropy =     6.7771

     12  H    Isotropic =    28.9479   Anisotropy =    12.0268

     13  H    Isotropic =    28.8250   Anisotropy =     8.6562

     14  H    Isotropic =    30.0325   Anisotropy =    12.7346

     15  H    Isotropic =    29.8846   Anisotropy =     9.0064

     16  H    Isotropic =    28.9528   Anisotropy =     4.0220

     17  H    Isotropic =    27.3876   Anisotropy =     2.3869

     18  H    Isotropic =    27.9663   Anisotropy =     4.0189

     19  O    Isotropic =   296.6476   Anisotropy =    32.3553

     20  H    Isotropic =    29.6877   Anisotropy =    18.9829

     21  O    Isotropic =   301.6256   Anisotropy =    41.5662

     22  H    Isotropic =    29.4248   Anisotropy =    19.4064

     23  C    Isotropic =   135.4034   Anisotropy =    52.6069

     24  H    Isotropic =    27.9892   Anisotropy =     7.8725

     25  H    Isotropic =    27.9316   Anisotropy =     6.6676

     26  O    Isotropic =   331.1110   Anisotropy =    47.0684

     27  H    Isotropic =    28.6359   Anisotropy =    16.3904

 The electronic state is 1-A.
 Alpha  occ. eigenvalues --  -19.26225 -19.26113 -19.24811 -14.42171 -10.30476
 Alpha  occ. eigenvalues --  -10.30361 -10.29266 -10.28411 -10.27954 -10.27168
 Alpha  occ. eigenvalues --  -10.24887 -10.24694  -1.07443  -1.05741  -1.05223
 Alpha  occ. eigenvalues --   -0.96879  -0.82925  -0.79623  -0.75438  -0.71791
 Alpha  occ. eigenvalues --   -0.66585  -0.61855  -0.60299  -0.58533  -0.56406
 Alpha  occ. eigenvalues --   -0.53168  -0.50730  -0.49959  -0.49632  -0.48795
 Alpha  occ. eigenvalues --   -0.45308  -0.44995  -0.43666  -0.42105  -0.40909
 Alpha  occ. eigenvalues --   -0.40464  -0.38481  -0.37816  -0.36346  -0.35542
 Alpha  occ. eigenvalues --   -0.35118  -0.34317  -0.33816  -0.31028  -0.29323
 Alpha  occ. eigenvalues --   -0.29180  -0.24252
 Alpha virt. eigenvalues --    0.00656   0.01422   0.01755   0.01968   0.03473
 Alpha virt. eigenvalues --    0.03989   0.04412   0.05138   0.05386   0.07153
 Alpha virt. eigenvalues --    0.07962   0.08136   0.08524   0.09087   0.09423

 Mulliken atomic charges:
              1
     1  C   -0.500518
     2  C    0.131604
     3  N   -0.299132
     4  C   -0.261905
     5  C   -0.255579
     6  C    0.154060
     7  C   -0.063625
     8  C   -0.169343
     9  H    0.181018
    10  H    0.176589
    11  H    0.174949
    12  H    0.169358
    13  H    0.168397
    14  H    0.175732
    15  H    0.176317
    16  H    0.176681
    17  H    0.182071
    18  H    0.177569
    19  O   -0.547836
    20  H    0.388707
    21  O   -0.548190
    22  H    0.388265
    23  C   -0.316128
    24  H    0.149378
    25  H    0.167241
    26  O   -0.562927
    27  H    0.387246
 Sum of Mulliken atomic charges =   0.00000

 Dipole moment (field-independent basis, Debye):
    X=              5.7945    Y=              0.5171    Z=              1.5405  Tot=              6.0180
 Quadrupole moment (field-independent basis, Debye-Ang):
   XX=            -76.2906   YY=            -69.5439   ZZ=            -77.1679
   XY=             -1.2441   XZ=             -3.5330   YZ=             -2.7311

 Normal termination of Gaussian 09 at Fri May 17 12:31:30 2024.
