 Gaussian 09, Revision C.01,
 Gaussian 09:  AM64L-G09RevC.01 23-Sep-2011

 ------------------------------------------------
 # mpw1pw91/6-31+G** nmr scrf=(pcm,solvent=water)
 ------------------------------------------------

 99/9=1/99;
 -------
 comment
 -------
 Charge =  0 Multiplicity = 1

                         Standard orientation:
 ---------------------------------------------------------------------
 Center     Atomic      Atomic             Coordinates (Angstroms)
 Number     Number       Type             X           Y           Z
 ---------------------------------------------------------------------
      1          6           0        1.977962   -1.597334   -0.152971
      2          6           0        1.147046   -0.424363   -0.701102
      3          7           0       -0.296602   -0.808901   -0.524484
      4          6           0       -0.322342   -2.096511    0.219444
      5          6           0        1.049215   -2.231839    0.891761
      6          6           0       -0.989412    0.304216    0.173859
      7          6           0       -0.072619    1.521254   -0.027993
      8          6           0        1.316227    0.899113    0.049587
      9          1           0        2.190929   -2.315840   -0.953253
     10          1           0        2.935957   -1.258751    0.255113
     11          1           0        1.368838   -0.240980   -1.760074
     12          1           0       -0.476506   -2.928095   -0.481040
     13          1           0       -1.158920   -2.107320    0.922840
     14          1           0        1.308124   -3.268866    1.128410
     15          1           0        1.073035   -1.654974    1.824625
     16          1           0       -1.054377    0.111708    1.256614
     17          1           0       -0.214416    1.945023   -1.032872
     18          1           0        1.544352    0.710303    1.110004
     19          8           0        2.353833    1.677754   -0.541385
     20          1           0        2.418315    2.497438   -0.022687
     21          8           0       -0.218119    2.540957    0.958438
     22          1           0       -1.027848    3.036694    0.752396
     23          6           0       -2.401940    0.527706   -0.355535
     24          1           0       -2.871423    1.354451    0.189470
     25          1           0       -2.360277    0.801631   -1.419764
     26          8           0       -3.254134   -0.607363   -0.164387
     27          1           0       -2.877030   -1.324368   -0.702027
 ---------------------------------------------------------------------

 SCF Done:  E(RmPW1PW91) =  -594.198910975     A.U. after   13 cycles

      1  C    Isotropic =   164.4344   Anisotropy =    22.3443

      2  C    Isotropic =   128.1717   Anisotropy =    55.4879

      3  N    Isotropic =   199.4539   Anisotropy =    74.7647

      4  C    Isotropic =   138.5473   Anisotropy =    59.8194

      5  C    Isotropic =   171.2508   Anisotropy =    19.1696

      6  C    Isotropic =   122.9549   Anisotropy =    40.0689

      7  C    Isotropic =   116.4727   Anisotropy =    35.4270

      8  C    Isotropic =   115.3860   Anisotropy =    32.6782

      9  H    Isotropic =    29.7949   Anisotropy =    11.9098

     10  H    Isotropic =    29.6952   Anisotropy =     9.6498

     11  H    Isotropic =    28.2151   Anisotropy =     6.9544

     12  H    Isotropic =    28.6343   Anisotropy =    11.3570

     13  H    Isotropic =    28.7795   Anisotropy =     7.0982

     14  H    Isotropic =    30.0362   Anisotropy =    12.6609

     15  H    Isotropic =    29.8198   Anisotropy =     8.8966

     16  H    Isotropic =    28.9216   Anisotropy =     5.7302

     17  H    Isotropic =    28.0016   Anisotropy =     1.5948

     18  H    Isotropic =    27.8598   Anisotropy =     3.6754

     19  O    Isotropic =   297.9864   Anisotropy =    43.1861

     20  H    Isotropic =    29.3766   Anisotropy =    18.9126

     21  O    Isotropic =   299.7234   Anisotropy =    34.6310

     22  H    Isotropic =    29.8688   Anisotropy =    19.6126

     23  C    Isotropic =   126.4094   Anisotropy =    48.7942

     24  H    Isotropic =    27.9169   Anisotropy =     5.5866

     25  H    Isotropic =    28.1154   Anisotropy =     6.0641

     26  O    Isotropic =   309.0361   Anisotropy =    26.4286

     27  H    Isotropic =    29.9749   Anisotropy =    14.1049

 The electronic state is 1-A.
 Alpha  occ. eigenvalues --  -19.26517 -19.26078 -19.25654 -14.41684 -10.30749
 Alpha  occ. eigenvalues --  -10.30468 -10.29613 -10.28082 -10.27992 -10.26982
 Alpha  occ. eigenvalues --  -10.24748 -10.24576  -1.07592  -1.05837  -1.05691
 Alpha  occ. eigenvalues --   -0.96680  -0.82964  -0.79672  -0.75524  -0.72037
 Alpha  occ. eigenvalues --   -0.66266  -0.62039  -0.60558  -0.58598  -0.56046
 Alpha  occ. eigenvalues --   -0.52951  -0.52433  -0.50869  -0.49533  -0.47270
 Alpha  occ. eigenvalues --   -0.45827  -0.45141  -0.43375  -0.42028  -0.41161
 Alpha  occ. eigenvalues --   -0.39411  -0.39209  -0.37545  -0.36269  -0.35810
 Alpha  occ. eigenvalues --   -0.35223  -0.34953  -0.33403  -0.31132  -0.30563
 Alpha  occ. eigenvalues --   -0.28813  -0.23547
 Alpha virt. eigenvalues --    0.00782   0.01069   0.01639   0.02306   0.03040
 Alpha virt. eigenvalues --    0.04058   0.04509   0.04959   0.05684   0.07037
 Alpha virt. eigenvalues --    0.07567   0.08081   0.08324   0.08908   0.09463

 Mulliken atomic charges:
              1
     1  C   -0.512532
     2  C    0.072060
     3  N   -0.225677
     4  C   -0.252156
     5  C   -0.251755
     6  C    0.052891
     7  C   -0.095696
     8  C   -0.076362
     9  H    0.178963
    10  H    0.180488
    11  H    0.169852
    12  H    0.167907
    13  H    0.171920
    14  H    0.174913
    15  H    0.174878
    16  H    0.179652
    17  H    0.178428
    18  H    0.174350
    19  O   -0.551152
    20  H    0.385106
    21  O   -0.546727
    22  H    0.388905
    23  C   -0.301405
    24  H    0.161029
    25  H    0.162393
    26  O   -0.539015
    27  H    0.378744
 Sum of Mulliken atomic charges =   0.00000

 Dipole moment (field-independent basis, Debye):
    X=              0.4295    Y=              0.1936    Z=              0.3746  Tot=              0.6019
 Quadrupole moment (field-independent basis, Debye-Ang):
   XX=            -85.0307   YY=            -62.9134   ZZ=            -76.1437
   XY=             -6.8297   XZ=              4.9149   YZ=             -0.2040

 Normal termination of Gaussian 09 at Fri May 17 12:37:11 2024.
