 Gaussian 09, Revision C.01,
 Gaussian 09:  AM64L-G09RevC.01 23-Sep-2011

 ------------------------------------------------
 # mpw1pw91/6-31+G** nmr scrf=(pcm,solvent=water)
 ------------------------------------------------

 99/9=1/99;
 -------
 comment
 -------
 Charge =  0 Multiplicity = 1

                         Standard orientation:
 ---------------------------------------------------------------------
 Center     Atomic      Atomic             Coordinates (Angstroms)
 Number     Number       Type             X           Y           Z
 ---------------------------------------------------------------------
      1          6           0       -2.542227    0.017016    0.211301
      2          6           0       -1.110152    0.320360    0.698671
      3          7           0       -0.286716   -0.910360    0.412584
      4          6           0       -1.199481   -1.909062   -0.197159
      5          6           0       -2.345249   -1.103239   -0.821068
      6          6           0        0.829816   -0.507660   -0.480392
      7          6           0        1.039233    0.976471   -0.151804
      8          6           0       -0.395242    1.478293   -0.022887
      9          1           0       -3.154647   -0.346444    1.044562
     10          1           0       -3.028650    0.910431   -0.193892
     11          1           0       -1.103299    0.533956    1.775316
     12          1           0       -1.590528   -2.573498    0.584093
     13          1           0       -0.653856   -2.531098   -0.912930
     14          1           0       -3.246972   -1.701511   -0.985829
     15          1           0       -2.032941   -0.687606   -1.787111
     16          1           0        0.556799   -0.578167   -1.545972
     17          1           0        1.547225    1.073651    0.818804
     18          1           0       -0.803357    1.608713   -1.032321
     19          8           0       -0.548158    2.746148    0.607211
     20          1           0       -0.220766    2.655436    1.519318
     21          8           0        1.744449    1.699705   -1.155450
     22          1           0        2.675052    1.423659   -1.109962
     23          6           0        2.052136   -1.390786   -0.239838
     24          1           0        1.852822   -2.407028   -0.612884
     25          1           0        2.914294   -0.997850   -0.791461
     26          8           0        2.401944   -1.423566    1.143870
     27          1           0        1.536945   -1.476778    1.596194
 ---------------------------------------------------------------------

 SCF Done:  E(RmPW1PW91) =  -594.201699698     A.U. after   13 cycles

      1  C    Isotropic =   163.0614   Anisotropy =    25.1355

      2  C    Isotropic =   126.4427   Anisotropy =    55.2644

      3  N    Isotropic =   204.9552   Anisotropy =    65.9765

      4  C    Isotropic =   142.4295   Anisotropy =    52.9368

      5  C    Isotropic =   171.4782   Anisotropy =    18.4617

      6  C    Isotropic =   124.7826   Anisotropy =    40.6932

      7  C    Isotropic =   120.2278   Anisotropy =    42.7163

      8  C    Isotropic =   113.2617   Anisotropy =    30.5897

      9  H    Isotropic =    29.6975   Anisotropy =    11.7022

     10  H    Isotropic =    29.6527   Anisotropy =     9.4056

     11  H    Isotropic =    28.5462   Anisotropy =     6.8154

     12  H    Isotropic =    28.9418   Anisotropy =    11.9730

     13  H    Isotropic =    28.8459   Anisotropy =     8.6819

     14  H    Isotropic =    30.0119   Anisotropy =    12.7278

     15  H    Isotropic =    29.8519   Anisotropy =     9.0784

     16  H    Isotropic =    29.0952   Anisotropy =     4.0994

     17  H    Isotropic =    27.6731   Anisotropy =     2.2600

     18  H    Isotropic =    28.0393   Anisotropy =     3.0654

     19  O    Isotropic =   289.0740   Anisotropy =    86.1826

     20  H    Isotropic =    30.7814   Anisotropy =    15.8395

     21  O    Isotropic =   302.4456   Anisotropy =    35.9787

     22  H    Isotropic =    29.7597   Anisotropy =    19.6407

     23  C    Isotropic =   136.0554   Anisotropy =    54.7273

     24  H    Isotropic =    27.9617   Anisotropy =     7.9744

     25  H    Isotropic =    28.1279   Anisotropy =     6.6064

     26  O    Isotropic =   331.3214   Anisotropy =    47.8244

     27  H    Isotropic =    28.7335   Anisotropy =    16.5238

 The electronic state is 1-A.
 Alpha  occ. eigenvalues --  -19.26313 -19.26181 -19.24985 -14.42274 -10.30616
 Alpha  occ. eigenvalues --  -10.30585 -10.29605 -10.28380 -10.28236 -10.27222
 Alpha  occ. eigenvalues --  -10.24864 -10.24704  -1.07530  -1.05896  -1.05407
 Alpha  occ. eigenvalues --   -0.96989  -0.82891  -0.79712  -0.75470  -0.72036
 Alpha  occ. eigenvalues --   -0.66760  -0.62466  -0.60887  -0.58689  -0.55222
 Alpha  occ. eigenvalues --   -0.53145  -0.52631  -0.49870  -0.49476  -0.47499
 Alpha  occ. eigenvalues --   -0.45505  -0.45113  -0.43464  -0.42207  -0.41934
 Alpha  occ. eigenvalues --   -0.40603  -0.38610  -0.37500  -0.36110  -0.35999
 Alpha  occ. eigenvalues --   -0.35578  -0.34741  -0.33829  -0.30917  -0.30046
 Alpha  occ. eigenvalues --   -0.28679  -0.24355
 Alpha virt. eigenvalues --    0.00647   0.01400   0.01695   0.02165   0.03556
 Alpha virt. eigenvalues --    0.04000   0.04150   0.05035   0.05286   0.07215
 Alpha virt. eigenvalues --    0.07910   0.08167   0.08536   0.09105   0.09400

 Mulliken atomic charges:
              1
     1  C   -0.534714
     2  C    0.173526
     3  N   -0.307410
     4  C   -0.264733
     5  C   -0.256261
     6  C    0.160177
     7  C   -0.157229
     8  C   -0.132802
     9  H    0.180248
    10  H    0.180279
    11  H    0.161861
    12  H    0.170004
    13  H    0.168632
    14  H    0.176331
    15  H    0.176451
    16  H    0.181792
    17  H    0.180463
    18  H    0.181789
    19  O   -0.526635
    20  H    0.372585
    21  O   -0.519042
    22  H    0.382954
    23  C   -0.294202
    24  H    0.154105
    25  H    0.157262
    26  O   -0.553669
    27  H    0.388240
 Sum of Mulliken atomic charges =   0.00000

 Dipole moment (field-independent basis, Debye):
    X=             -1.8077    Y=             -2.7918    Z=             -0.1780  Tot=              3.3307
 Quadrupole moment (field-independent basis, Debye-Ang):
   XX=            -72.6736   YY=            -84.6731   ZZ=            -71.3860
   XY=              6.7025   XZ=             -4.7459   YZ=              8.6438

 Normal termination of Gaussian 09 at Fri May 17 12:39:13 2024.
