 Gaussian 09, Revision C.01,
 Gaussian 09:  AM64L-G09RevC.01 23-Sep-2011

 ------------------------------------------------
 # mpw1pw91/6-31+G** nmr scrf=(pcm,solvent=water)
 ------------------------------------------------

 99/9=1/99;
 -------
 comment
 -------
 Charge =  0 Multiplicity = 1

                         Standard orientation:
 ---------------------------------------------------------------------
 Center     Atomic      Atomic             Coordinates (Angstroms)
 Number     Number       Type             X           Y           Z
 ---------------------------------------------------------------------
      1          6           0       -2.488899    0.285682   -0.438156
      2          6           0       -1.116707   -0.361287   -0.705930
      3          7           0       -0.087421    0.680327   -0.371966
      4          6           0       -0.776552    1.779004    0.324043
      5          6           0       -2.167806    1.787158   -0.309200
      6          6           0        1.017108    0.034152    0.367458
      7          6           0        0.813175   -1.483437    0.157817
      8          6           0       -0.723846   -1.605626    0.105111
      9          1           0       -3.206699    0.070092   -1.234941
     10          1           0       -2.907553   -0.088110    0.500408
     11          1           0       -1.023935   -0.628076   -1.767680
     12          1           0       -0.241375    2.725731    0.193908
     13          1           0       -0.850795    1.590058    1.409879
     14          1           0       -2.125592    2.257725   -1.298791
     15          1           0       -2.901048    2.331956    0.293871
     16          1           0        0.911236    0.229652    1.446867
     17          1           0        1.231238   -2.061123    0.986909
     18          1           0       -1.035522   -2.540669   -0.377353
     19          8           0       -1.267740   -1.508772    1.424934
     20          1           0       -0.930652   -2.268874    1.929045
     21          8           0        1.442895   -2.010443   -1.014756
     22          1           0        1.125106   -1.516107   -1.788905
     23          6           0        2.398483    0.517553   -0.046198
     24          1           0        3.164678   -0.113826    0.428222
     25          1           0        2.516186    0.435443   -1.133927
     26          8           0        2.545380    1.881343    0.373167
     27          1           0        3.392674    2.197617    0.019817
 ---------------------------------------------------------------------

 SCF Done:  E(RmPW1PW91) =  -594.194331908     A.U. after   13 cycles

      1  C    Isotropic =   172.1780   Anisotropy =    21.2147

      2  C    Isotropic =   127.1729   Anisotropy =    60.7644

      3  N    Isotropic =   186.2334   Anisotropy =    97.5328

      4  C    Isotropic =   136.7234   Anisotropy =    56.2131

      5  C    Isotropic =   163.6197   Anisotropy =    26.4648

      6  C    Isotropic =   126.2863   Anisotropy =    38.4466

      7  C    Isotropic =   108.7606   Anisotropy =    30.1636

      8  C    Isotropic =   117.5098   Anisotropy =    32.7683

      9  H    Isotropic =    29.9291   Anisotropy =    11.6797

     10  H    Isotropic =    29.3900   Anisotropy =     7.6192

     11  H    Isotropic =    27.6875   Anisotropy =     7.7364

     12  H    Isotropic =    28.2619   Anisotropy =     8.5428

     13  H    Isotropic =    29.0644   Anisotropy =     7.6037

     14  H    Isotropic =    29.4025   Anisotropy =    10.5458

     15  H    Isotropic =    29.5291   Anisotropy =    11.5864

     16  H    Isotropic =    28.4741   Anisotropy =     4.9854

     17  H    Isotropic =    27.4388   Anisotropy =     4.9011

     18  H    Isotropic =    27.7005   Anisotropy =     6.7748

     19  O    Isotropic =   288.4970   Anisotropy =    79.8205

     20  H    Isotropic =    30.2712   Anisotropy =    19.8755

     21  O    Isotropic =   296.9908   Anisotropy =    30.2211

     22  H    Isotropic =    30.4438   Anisotropy =    13.4437

     23  C    Isotropic =   127.8570   Anisotropy =    47.0873

     24  H    Isotropic =    27.5457   Anisotropy =     6.0673

     25  H    Isotropic =    27.8410   Anisotropy =     5.3704

     26  O    Isotropic =   312.6196   Anisotropy =    84.2771

     27  H    Isotropic =    30.1932   Anisotropy =    21.5285

 The electronic state is 1-A.
 Alpha  occ. eigenvalues --  -19.26300 -19.25981 -19.25319 -14.40869 -10.30898
 Alpha  occ. eigenvalues --  -10.30391 -10.29361 -10.27895 -10.27883 -10.26442
 Alpha  occ. eigenvalues --  -10.24381 -10.24356  -1.07357  -1.05888  -1.05354
 Alpha  occ. eigenvalues --   -0.96000  -0.82670  -0.79018  -0.75330  -0.71845
 Alpha  occ. eigenvalues --   -0.66372  -0.61748  -0.60584  -0.57099  -0.55112
 Alpha  occ. eigenvalues --   -0.53686  -0.52389  -0.51255  -0.48921  -0.46830
 Alpha  occ. eigenvalues --   -0.45841  -0.43850  -0.42834  -0.41455  -0.41165
 Alpha  occ. eigenvalues --   -0.39389  -0.38503  -0.37806  -0.36943  -0.35427
 Alpha  occ. eigenvalues --   -0.34729  -0.33988  -0.32534  -0.32247  -0.29574
 Alpha  occ. eigenvalues --   -0.28461  -0.22945
 Alpha virt. eigenvalues --    0.00605   0.01419   0.01830   0.02118   0.03318
 Alpha virt. eigenvalues --    0.04324   0.04639   0.05159   0.05385   0.07173
 Alpha virt. eigenvalues --    0.07743   0.07995   0.08604   0.09059   0.09510

 Mulliken atomic charges:
              1
     1  C   -0.532959
     2  C    0.136497
     3  N   -0.157316
     4  C   -0.244099
     5  C   -0.363828
     6  C    0.013452
     7  C   -0.286850
     8  C    0.004702
     9  H    0.172352
    10  H    0.188621
    11  H    0.163958
    12  H    0.166328
    13  H    0.144805
    14  H    0.175609
    15  H    0.173210
    16  H    0.164866
    17  H    0.177435
    18  H    0.174563
    19  O   -0.574126
    20  H    0.387984
    21  O   -0.510830
    22  H    0.379633
    23  C   -0.066210
    24  H    0.157885
    25  H    0.158081
    26  O   -0.595356
    27  H    0.391593
 Sum of Mulliken atomic charges =   0.00000

 Dipole moment (field-independent basis, Debye):
    X=              0.2413    Y=             -1.4677    Z=             -0.5960  Tot=              1.6024
 Quadrupole moment (field-independent basis, Debye-Ang):
   XX=            -67.7151   YY=            -73.8713   ZZ=            -70.4844
   XY=              3.3623   XZ=              1.1349   YZ=             -5.5083

 Normal termination of Gaussian 09 at Fri May 17 12:55:17 2024.
