 Gaussian 09, Revision C.01,
 Gaussian 09:  AM64L-G09RevC.01 23-Sep-2011

 ------------------------------------------------
 # mpw1pw91/6-31+G** nmr scrf=(pcm,solvent=water)
 ------------------------------------------------

 99/9=1/99;
 -------
 comment
 -------
 Charge =  0 Multiplicity = 1

                         Standard orientation:
 ---------------------------------------------------------------------
 Center     Atomic      Atomic             Coordinates (Angstroms)
 Number     Number       Type             X           Y           Z
 ---------------------------------------------------------------------
      1          6           0        2.180059   -0.931102    0.031109
      2          6           0        1.071434   -0.282497   -0.856454
      3          7           0       -0.223324   -0.942593   -0.496940
      4          6           0        0.160862   -2.238475    0.098934
      5          6           0        1.439122   -1.966740    0.904274
      6          6           0       -0.971435   -0.046033    0.439410
      7          6           0       -0.074546    1.198482    0.639585
      8          6           0        0.803546    1.205188   -0.614945
      9          1           0        2.922302   -1.420828   -0.607501
     10          1           0        2.709273   -0.186524    0.631349
     11          1           0        1.293891   -0.465869   -1.912261
     12          1           0        0.371662   -2.947500   -0.712238
     13          1           0       -0.666283   -2.645007    0.686580
     14          1           0        2.027981   -2.871788    1.085182
     15          1           0        1.180596   -1.536690    1.879615
     16          1           0       -1.134016   -0.557915    1.394755
     17          1           0        0.566712    1.048908    1.513927
     18          1           0        0.206732    1.604280   -1.450474
     19          8           0        2.008915    1.951276   -0.488989
     20          1           0        1.747394    2.864438   -0.280318
     21          8           0       -0.750861    2.431320    0.886889
     22          1           0       -1.213585    2.688363    0.070582
     23          6           0       -2.350995    0.268994   -0.149110
     24          1           0       -2.958559    0.823197    0.572187
     25          1           0       -2.254760    0.885357   -1.056514
     26          8           0       -3.053875   -0.939789   -0.440512
     27          1           0       -2.417782   -1.473622   -0.952213
 ---------------------------------------------------------------------

 SCF Done:  E(RmPW1PW91) =  -594.195019626     A.U. after   13 cycles

      1  C    Isotropic =   169.4552   Anisotropy =    25.6616

      2  C    Isotropic =   129.9789   Anisotropy =    60.0810

      3  N    Isotropic =   192.7190   Anisotropy =    55.6922

      4  C    Isotropic =   137.8273   Anisotropy =    59.4598

      5  C    Isotropic =   169.3529   Anisotropy =    21.2636

      6  C    Isotropic =   127.6397   Anisotropy =    41.5014

      7  C    Isotropic =   117.0863   Anisotropy =    43.4772

      8  C    Isotropic =   115.1424   Anisotropy =    36.1423

      9  H    Isotropic =    29.9917   Anisotropy =    12.2741

     10  H    Isotropic =    29.5121   Anisotropy =     7.7509

     11  H    Isotropic =    27.9759   Anisotropy =     9.0740

     12  H    Isotropic =    28.7048   Anisotropy =    11.6194

     13  H    Isotropic =    28.7573   Anisotropy =     8.8669

     14  H    Isotropic =    29.9453   Anisotropy =    12.5554

     15  H    Isotropic =    30.0149   Anisotropy =     9.0898

     16  H    Isotropic =    28.7949   Anisotropy =     5.3405

     17  H    Isotropic =    27.6414   Anisotropy =     4.2576

     18  H    Isotropic =    27.3833   Anisotropy =     3.1770

     19  O    Isotropic =   301.5892   Anisotropy =    30.4337

     20  H    Isotropic =    29.3427   Anisotropy =    18.8522

     21  O    Isotropic =   304.9329   Anisotropy =    75.8411

     22  H    Isotropic =    30.9106   Anisotropy =    15.6983

     23  C    Isotropic =   131.8080   Anisotropy =    43.9839

     24  H    Isotropic =    28.0299   Anisotropy =     5.8526

     25  H    Isotropic =    28.3313   Anisotropy =     6.2482

     26  O    Isotropic =   320.6101   Anisotropy =    33.2425

     27  H    Isotropic =    29.1987   Anisotropy =    15.3584

 The electronic state is 1-A.
 Alpha  occ. eigenvalues --  -19.26686 -19.26214 -19.25284 -14.42221 -10.30901
 Alpha  occ. eigenvalues --  -10.30863 -10.29540 -10.28401 -10.28254 -10.27119
 Alpha  occ. eigenvalues --  -10.24497 -10.24463  -1.07822  -1.05961  -1.05581
 Alpha  occ. eigenvalues --   -0.97086  -0.82313  -0.79487  -0.75656  -0.71705
 Alpha  occ. eigenvalues --   -0.67438  -0.62899  -0.60304  -0.57762  -0.55849
 Alpha  occ. eigenvalues --   -0.54109  -0.52014  -0.50278  -0.48378  -0.47449
 Alpha  occ. eigenvalues --   -0.45857  -0.45265  -0.44671  -0.43104  -0.40521
 Alpha  occ. eigenvalues --   -0.39347  -0.38142  -0.38065  -0.37037  -0.35733
 Alpha  occ. eigenvalues --   -0.35133  -0.34662  -0.33197  -0.32135  -0.29837
 Alpha  occ. eigenvalues --   -0.28500  -0.24365
 Alpha virt. eigenvalues --    0.00657   0.00969   0.01534   0.02133   0.03744
 Alpha virt. eigenvalues --    0.04079   0.04591   0.04726   0.05362   0.06999
 Alpha virt. eigenvalues --    0.07465   0.08207   0.08783   0.09202   0.09736

 Mulliken atomic charges:
              1
     1  C   -0.382063
     2  C   -0.041420
     3  N   -0.170855
     4  C   -0.200774
     5  C   -0.259980
     6  C   -0.147387
     7  C   -0.126212
     8  C   -0.199713
     9  H    0.175528
    10  H    0.189373
    11  H    0.179293
    12  H    0.171599
    13  H    0.174231
    14  H    0.174436
    15  H    0.173511
    16  H    0.181929
    17  H    0.190768
    18  H    0.171821
    19  O   -0.524407
    20  H    0.384949
    21  O   -0.507080
    22  H    0.369914
    23  C   -0.157497
    24  H    0.178074
    25  H    0.153234
    26  O   -0.532037
    27  H    0.380765
 Sum of Mulliken atomic charges =   0.00000

 Dipole moment (field-independent basis, Debye):
    X=              1.6822    Y=              0.1436    Z=             -0.6714  Tot=              1.8169
 Quadrupole moment (field-independent basis, Debye-Ang):
   XX=            -88.9754   YY=            -66.8378   ZZ=            -73.7698
   XY=             -7.7664   XZ=              1.6863   YZ=             -4.9315

 Normal termination of Gaussian 09 at Fri May 17 12:31:04 2024.
