 Gaussian 09, Revision C.01,
 Gaussian 09:  AM64L-G09RevC.01 23-Sep-2011

 ------------------------------------------------
 # mpw1pw91/6-31+G** nmr scrf=(pcm,solvent=water)
 ------------------------------------------------

 99/9=1/99;
 -------
 comment
 -------
 Charge =  0 Multiplicity = 1

                         Standard orientation:
 ---------------------------------------------------------------------
 Center     Atomic      Atomic             Coordinates (Angstroms)
 Number     Number       Type             X           Y           Z
 ---------------------------------------------------------------------
      1          6           0       -2.475880    0.321169   -0.435585
      2          6           0       -1.115982   -0.347679   -0.707186
      3          7           0       -0.071715    0.677311   -0.372343
      4          6           0       -0.742739    1.794387    0.311896
      5          6           0       -2.133404    1.818710   -0.321707
      6          6           0        1.019755    0.019402    0.374169
      7          6           0        0.796087   -1.495661    0.168869
      8          6           0       -0.737818   -1.602478    0.107908
      9          1           0       -3.207016    0.105877   -1.219900
     10          1           0       -2.894786   -0.027097    0.514641
     11          1           0       -1.031523   -0.613113   -1.770700
     12          1           0       -0.193112    2.731467    0.172886
     13          1           0       -0.820354    1.616941    1.399384
     14          1           0       -2.084817    2.278025   -1.316204
     15          1           0       -2.858606    2.379937    0.275840
     16          1           0        0.914119    0.220786    1.452888
     17          1           0        1.199664   -2.077055    1.000904
     18          1           0       -1.055310   -2.531958   -0.379862
     19          8           0       -1.196850   -1.561991    1.463149
     20          1           0       -2.160687   -1.680852    1.448046
     21          8           0        1.420950   -2.031272   -1.001270
     22          1           0        1.120257   -1.525701   -1.775028
     23          6           0        2.408197    0.484179   -0.038436
     24          1           0        3.166119   -0.153991    0.440134
     25          1           0        2.526364    0.396405   -1.125702
     26          8           0        2.569351    1.847805    0.375543
     27          1           0        3.424781    2.150636    0.030118
 ---------------------------------------------------------------------

 SCF Done:  E(RmPW1PW91) =  -594.193894819     A.U. after   13 cycles

      1  C    Isotropic =   171.2724   Anisotropy =    20.5600

      2  C    Isotropic =   126.2480   Anisotropy =    60.0372

      3  N    Isotropic =   186.4498   Anisotropy =    97.2101

      4  C    Isotropic =   136.7427   Anisotropy =    56.0675

      5  C    Isotropic =   163.5270   Anisotropy =    26.6107

      6  C    Isotropic =   126.1017   Anisotropy =    37.4052

      7  C    Isotropic =   110.3549   Anisotropy =    27.9221

      8  C    Isotropic =   116.7457   Anisotropy =    32.1038

      9  H    Isotropic =    29.8525   Anisotropy =    11.7474

     10  H    Isotropic =    30.0395   Anisotropy =     7.5316

     11  H    Isotropic =    27.7401   Anisotropy =     7.6860

     12  H    Isotropic =    28.2430   Anisotropy =     8.6053

     13  H    Isotropic =    29.0775   Anisotropy =     7.7077

     14  H    Isotropic =    29.3565   Anisotropy =    10.5591

     15  H    Isotropic =    29.4884   Anisotropy =    11.6130

     16  H    Isotropic =    28.5204   Anisotropy =     5.0776

     17  H    Isotropic =    27.1927   Anisotropy =     5.0650

     18  H    Isotropic =    27.7467   Anisotropy =     6.9839

     19  O    Isotropic =   292.3900   Anisotropy =    45.8193

     20  H    Isotropic =    29.9675   Anisotropy =    18.9851

     21  O    Isotropic =   297.3476   Anisotropy =    27.2588

     22  H    Isotropic =    30.3866   Anisotropy =    13.2896

     23  C    Isotropic =   127.8788   Anisotropy =    46.9096

     24  H    Isotropic =    27.5284   Anisotropy =     6.0728

     25  H    Isotropic =    27.8308   Anisotropy =     5.3826

     26  O    Isotropic =   312.5871   Anisotropy =    84.2236

     27  H    Isotropic =    30.1954   Anisotropy =    21.5567

 The electronic state is 1-A.
 Alpha  occ. eigenvalues --  -19.26279 -19.26047 -19.25323 -14.40915 -10.30877
 Alpha  occ. eigenvalues --  -10.30441 -10.29363 -10.27903 -10.27889 -10.26533
 Alpha  occ. eigenvalues --  -10.24913 -10.24567  -1.07373  -1.05935  -1.05366
 Alpha  occ. eigenvalues --   -0.96074  -0.82897  -0.79005  -0.75419  -0.72301
 Alpha  occ. eigenvalues --   -0.66203  -0.61651  -0.60492  -0.57823  -0.55285
 Alpha  occ. eigenvalues --   -0.53910  -0.51498  -0.50597  -0.49499  -0.47004
 Alpha  occ. eigenvalues --   -0.45803  -0.44940  -0.43934  -0.41876  -0.40197
 Alpha  occ. eigenvalues --   -0.39604  -0.38037  -0.37619  -0.36725  -0.35658
 Alpha  occ. eigenvalues --   -0.34984  -0.34589  -0.32949  -0.30946  -0.29995
 Alpha  occ. eigenvalues --   -0.29222  -0.22824
 Alpha virt. eigenvalues --    0.00664   0.01133   0.01835   0.02324   0.03142
 Alpha virt. eigenvalues --    0.04307   0.04808   0.05277   0.05350   0.07131
 Alpha virt. eigenvalues --    0.07673   0.07846   0.08601   0.09035   0.09729

 Mulliken atomic charges:
              1
     1  C   -0.439172
     2  C    0.068669
     3  N   -0.148306
     4  C   -0.257079
     5  C   -0.370412
     6  C    0.050335
     7  C   -0.345536
     8  C    0.054404
     9  H    0.178844
    10  H    0.148808
    11  H    0.162279
    12  H    0.167504
    13  H    0.145630
    14  H    0.178360
    15  H    0.175274
    16  H    0.166019
    17  H    0.184182
    18  H    0.174912
    19  O   -0.577968
    20  H    0.382751
    21  O   -0.507095
    22  H    0.379398
    23  C   -0.084190
    24  H    0.158115
    25  H    0.157723
    26  O   -0.595593
    27  H    0.392141
 Sum of Mulliken atomic charges =   0.00000

 Dipole moment (field-independent basis, Debye):
    X=             -2.2164    Y=             -0.0706    Z=             -1.7058  Tot=              2.7977
 Quadrupole moment (field-independent basis, Debye-Ang):
   XX=            -59.0167   YY=            -79.0631   ZZ=            -74.2750
   XY=              6.2032   XZ=             -1.5629   YZ=             -0.9387

 Normal termination of Gaussian 09 at Fri May 17 12:20:57 2024.
