 Gaussian 09, Revision C.01,
 Gaussian 09:  AM64L-G09RevC.01 23-Sep-2011

 ------------------------------------------------
 # mpw1pw91/6-31+G** nmr scrf=(pcm,solvent=water)
 ------------------------------------------------

 99/9=1/99;
 -------
 comment
 -------
 Charge =  0 Multiplicity = 1

                         Standard orientation:
 ---------------------------------------------------------------------
 Center     Atomic      Atomic             Coordinates (Angstroms)
 Number     Number       Type             X           Y           Z
 ---------------------------------------------------------------------
      1          6           0       -2.465192    0.293099   -0.460848
      2          6           0       -1.091895   -0.354112   -0.717722
      3          7           0       -0.065694    0.681440   -0.352688
      4          6           0       -0.765194    1.770693    0.350725
      5          6           0       -2.144796    1.791918   -0.306211
      6          6           0        1.027020    0.023007    0.396271
      7          6           0        0.819362   -1.492719    0.174445
      8          6           0       -0.712122   -1.613995    0.088815
      9          1           0       -3.175816    0.087184   -1.266192
     10          1           0       -2.900797   -0.082108    0.471361
     11          1           0       -0.986398   -0.606322   -1.782237
     12          1           0       -0.229069    2.720659    0.245935
     13          1           0       -0.858290    1.562393    1.431230
     14          1           0       -2.085321    2.274976   -1.288718
     15          1           0       -2.887444    2.329289    0.291768
     16          1           0        0.911250    0.214979    1.475117
     17          1           0        1.214813   -2.076513    1.008736
     18          1           0       -1.012506   -2.540556   -0.415120
     19          8           0       -1.192812   -1.595261    1.437125
     20          1           0       -2.153413   -1.735397    1.406411
     21          8           0        1.466875   -2.016875   -0.989005
     22          1           0        1.172432   -1.511779   -1.765425
     23          6           0        2.412993    0.517945   -0.007708
     24          1           0        3.178760   -0.050151    0.531423
     25          1           0        2.571835    0.369571   -1.083068
     26          8           0        2.624431    1.892184    0.341834
     27          1           0        2.030811    2.418295   -0.218632
 ---------------------------------------------------------------------

 SCF Done:  E(RmPW1PW91) =  -594.194632069     A.U. after   13 cycles

      1  C    Isotropic =   171.6301   Anisotropy =    20.2077

      2  C    Isotropic =   126.0496   Anisotropy =    60.7608

      3  N    Isotropic =   187.8903   Anisotropy =    94.6601

      4  C    Isotropic =   136.0696   Anisotropy =    55.9714

      5  C    Isotropic =   163.2435   Anisotropy =    27.2796

      6  C    Isotropic =   124.8758   Anisotropy =    34.1665

      7  C    Isotropic =   110.6130   Anisotropy =    28.4626

      8  C    Isotropic =   116.6067   Anisotropy =    31.9978

      9  H    Isotropic =    29.8325   Anisotropy =    11.7858

     10  H    Isotropic =    30.0430   Anisotropy =     7.6151

     11  H    Isotropic =    27.7155   Anisotropy =     7.6386

     12  H    Isotropic =    28.4633   Anisotropy =     8.6699

     13  H    Isotropic =    29.0266   Anisotropy =     7.6842

     14  H    Isotropic =    29.3269   Anisotropy =    10.5717

     15  H    Isotropic =    29.4588   Anisotropy =    11.6670

     16  H    Isotropic =    28.5715   Anisotropy =     5.2753

     17  H    Isotropic =    27.1900   Anisotropy =     4.9958

     18  H    Isotropic =    27.7548   Anisotropy =     6.9838

     19  O    Isotropic =   292.4308   Anisotropy =    45.4491

     20  H    Isotropic =    29.9603   Anisotropy =    19.0269

     21  O    Isotropic =   297.3893   Anisotropy =    29.6078

     22  H    Isotropic =    30.4330   Anisotropy =    13.2280

     23  C    Isotropic =   127.8379   Anisotropy =    48.0243

     24  H    Isotropic =    27.7879   Anisotropy =     6.3402

     25  H    Isotropic =    27.8153   Anisotropy =     6.0195

     26  O    Isotropic =   311.1500   Anisotropy =    46.5401

     27  H    Isotropic =    30.3404   Anisotropy =    15.2011

 The electronic state is 1-A.
 Alpha  occ. eigenvalues --  -19.26319 -19.26102 -19.25506 -14.41340 -10.30950
 Alpha  occ. eigenvalues --  -10.30533 -10.29405 -10.28099 -10.27901 -10.27012
 Alpha  occ. eigenvalues --  -10.25046 -10.24767  -1.07420  -1.05983  -1.05530
 Alpha  occ. eigenvalues --   -0.96306  -0.82983  -0.79169  -0.75448  -0.72476
 Alpha  occ. eigenvalues --   -0.66580  -0.61924  -0.60751  -0.58191  -0.55469
 Alpha  occ. eigenvalues --   -0.53138  -0.52764  -0.50609  -0.49347  -0.46502
 Alpha  occ. eigenvalues --   -0.45532  -0.44920  -0.43872  -0.43130  -0.40416
 Alpha  occ. eigenvalues --   -0.39394  -0.38507  -0.37980  -0.36601  -0.35917
 Alpha  occ. eigenvalues --   -0.35049  -0.34640  -0.33182  -0.31659  -0.30320
 Alpha  occ. eigenvalues --   -0.28888  -0.23183
 Alpha virt. eigenvalues --    0.00563   0.01157   0.01944   0.02246   0.03343
 Alpha virt. eigenvalues --    0.04276   0.04754   0.05225   0.05354   0.06776
 Alpha virt. eigenvalues --    0.07681   0.07937   0.08527   0.08996   0.09721

 Mulliken atomic charges:
              1
     1  C   -0.423906
     2  C   -0.009364
     3  N   -0.251165
     4  C   -0.215348
     5  C   -0.412909
     6  C    0.260600
     7  C   -0.331888
     8  C    0.063842
     9  H    0.180427
    10  H    0.150175
    11  H    0.164726
    12  H    0.156782
    13  H    0.153020
    14  H    0.180262
    15  H    0.177434
    16  H    0.170651
    17  H    0.184961
    18  H    0.176192
    19  O   -0.579348
    20  H    0.383454
    21  O   -0.507301
    22  H    0.379016
    23  C   -0.202928
    24  H    0.166706
    25  H    0.158061
    26  O   -0.546700
    27  H    0.374548
 Sum of Mulliken atomic charges =   0.00000

 Dipole moment (field-independent basis, Debye):
    X=             -5.2148    Y=              0.0685    Z=             -2.0399  Tot=              5.6000
 Quadrupole moment (field-independent basis, Debye-Ang):
   XX=            -74.6588   YY=            -77.0307   ZZ=            -73.6188
   XY=             -0.0804   XZ=             -1.6411   YZ=             -1.8725

 Normal termination of Gaussian 09 at Fri May 17 12:21:51 2024.
