 Gaussian 09, Revision C.01,
 Gaussian 09:  AM64L-G09RevC.01 23-Sep-2011

 ------------------------------------------------
 # mpw1pw91/6-31+G** nmr scrf=(pcm,solvent=water)
 ------------------------------------------------

 99/9=1/99;
 -------
 comment
 -------
 Charge =  0 Multiplicity = 1

                         Standard orientation:
 ---------------------------------------------------------------------
 Center     Atomic      Atomic             Coordinates (Angstroms)
 Number     Number       Type             X           Y           Z
 ---------------------------------------------------------------------
      1          6           0        2.598847    0.045291   -0.419517
      2          6           0        1.162646    0.454412   -0.809133
      3          7           0        0.312169   -0.775507   -0.641437
      4          6           0        1.179697   -1.857114   -0.121481
      5          6           0        2.401327   -1.168562    0.501480
      6          6           0       -0.831861   -0.431841    0.234331
      7          6           0       -0.975144    1.096278    0.104484
      8          6           0        0.494476    1.555965    0.035669
      9          1           0        3.150464   -0.251942   -1.318683
     10          1           0        3.148299    0.863004    0.054163
     11          1           0        1.132180    0.781453   -1.855399
     12          1           0        1.496222   -2.508235   -0.947549
     13          1           0        0.623684   -2.481350    0.585182
     14          1           0        3.278699   -1.822449    0.545418
     15          1           0        2.171604   -0.838898    1.520406
     16          1           0       -0.603868   -0.644830    1.291267
     17          1           0       -1.485265    1.530609    0.968248
     18          1           0        0.580361    2.542654   -0.436353
     19          8           0        1.068429    1.583358    1.347469
     20          1           0        0.593435    2.265472    1.851754
     21          8           0       -1.736780    1.523033   -1.030528
     22          1           0       -1.361390    1.112677   -1.827452
     23          6           0       -2.087758   -1.219382   -0.138759
     24          1           0       -2.363667   -1.022689   -1.182178
     25          1           0       -1.890221   -2.291998   -0.042005
     26          8           0       -3.184388   -0.933766    0.737876
     27          1           0       -3.487192   -0.036221    0.522248
 ---------------------------------------------------------------------

 SCF Done:  E(RmPW1PW91) =  -594.195301287     A.U. after   13 cycles

      1  C    Isotropic =   167.9233   Anisotropy =    24.4231

      2  C    Isotropic =   128.4901   Anisotropy =    61.1222

      3  N    Isotropic =   196.4984   Anisotropy =    78.7582

      4  C    Isotropic =   141.0755   Anisotropy =    56.3646

      5  C    Isotropic =   168.5091   Anisotropy =    23.9976

      6  C    Isotropic =   124.8647   Anisotropy =    56.5031

      7  C    Isotropic =   113.6733   Anisotropy =    38.8788

      8  C    Isotropic =   115.7454   Anisotropy =    28.4184

      9  H    Isotropic =    29.8591   Anisotropy =    12.4366

     10  H    Isotropic =    29.4501   Anisotropy =     9.5129

     11  H    Isotropic =    27.8082   Anisotropy =     8.3749

     12  H    Isotropic =    28.7477   Anisotropy =    11.9140

     13  H    Isotropic =    28.7855   Anisotropy =     8.5483

     14  H    Isotropic =    30.1294   Anisotropy =    12.8059

     15  H    Isotropic =    29.7737   Anisotropy =     7.8378

     16  H    Isotropic =    28.4897   Anisotropy =     4.4691

     17  H    Isotropic =    27.6168   Anisotropy =     4.3851

     18  H    Isotropic =    27.5416   Anisotropy =     6.4748

     19  O    Isotropic =   291.4827   Anisotropy =    80.8300

     20  H    Isotropic =    30.3619   Anisotropy =    20.1037

     21  O    Isotropic =   303.4749   Anisotropy =    30.6332

     22  H    Isotropic =    30.2585   Anisotropy =    14.4684

     23  C    Isotropic =   131.3242   Anisotropy =    73.0563

     24  H    Isotropic =    27.7601   Anisotropy =     2.9676

     25  H    Isotropic =    28.0203   Anisotropy =     4.5172

     26  O    Isotropic =   311.3351   Anisotropy =    35.3059

     27  H    Isotropic =    30.2281   Anisotropy =    15.5753

 The electronic state is 1-A.
 Alpha  occ. eigenvalues --  -19.26415 -19.25898 -19.25659 -14.41291 -10.30771
 Alpha  occ. eigenvalues --  -10.30487 -10.29415 -10.27970 -10.27883 -10.26787
 Alpha  occ. eigenvalues --  -10.24517 -10.24086  -1.07412  -1.05969  -1.05495
 Alpha  occ. eigenvalues --   -0.96140  -0.82332  -0.79212  -0.75043  -0.71979
 Alpha  occ. eigenvalues --   -0.67050  -0.62570  -0.59772  -0.57474  -0.54833
 Alpha  occ. eigenvalues --   -0.54010  -0.52808  -0.50724  -0.48682  -0.47193
 Alpha  occ. eigenvalues --   -0.45669  -0.43788  -0.42958  -0.42210  -0.41222
 Alpha  occ. eigenvalues --   -0.38961  -0.38433  -0.37834  -0.37166  -0.35558
 Alpha  occ. eigenvalues --   -0.35000  -0.34521  -0.32711  -0.31850  -0.30013
 Alpha  occ. eigenvalues --   -0.28391  -0.23312
 Alpha virt. eigenvalues --    0.00430   0.01081   0.01649   0.02308   0.03849
 Alpha virt. eigenvalues --    0.04033   0.04647   0.04787   0.05513   0.06566
 Alpha virt. eigenvalues --    0.07561   0.08025   0.08639   0.08919   0.09370

 Mulliken atomic charges:
              1
     1  C   -0.513721
     2  C    0.069313
     3  N   -0.147198
     4  C   -0.247918
     5  C   -0.269538
     6  C   -0.248129
     7  C   -0.246911
     8  C    0.092043
     9  H    0.175485
    10  H    0.181481
    11  H    0.170444
    12  H    0.162889
    13  H    0.162549
    14  H    0.168366
    15  H    0.182257
    16  H    0.180483
    17  H    0.180933
    18  H    0.173401
    19  O   -0.561138
    20  H    0.387661
    21  O   -0.521187
    22  H    0.384095
    23  C   -0.087991
    24  H    0.163249
    25  H    0.164291
    26  O   -0.536230
    27  H    0.381022
 Sum of Mulliken atomic charges =   0.00000

 Dipole moment (field-independent basis, Debye):
    X=              2.1657    Y=              1.7023    Z=             -0.7186  Tot=              2.8468
 Quadrupole moment (field-independent basis, Debye-Ang):
   XX=            -81.7245   YY=            -70.4963   ZZ=            -72.0151
   XY=             -5.0373   XZ=             -0.1857   YZ=              3.7879

 Normal termination of Gaussian 09 at Fri May 17 12:51:54 2024.
