 Gaussian 09, Revision C.01,
 Gaussian 09:  AM64L-G09RevC.01 23-Sep-2011

 ------------------------------------------------
 # mpw1pw91/6-31+G** nmr scrf=(pcm,solvent=water)
 ------------------------------------------------

 99/9=1/99;
 -------
 comment
 -------
 Charge =  0 Multiplicity = 1

                         Standard orientation:
 ---------------------------------------------------------------------
 Center     Atomic      Atomic             Coordinates (Angstroms)
 Number     Number       Type             X           Y           Z
 ---------------------------------------------------------------------
      1          6           0        2.387519   -0.168579   -0.797222
      2          6           0        0.919517    0.291036   -0.914090
      3          7           0        0.082262   -0.821656   -0.338147
      4          6           0        1.003598   -1.874460    0.153149
      5          6           0        2.367986   -1.198701    0.343498
      6          6           0       -0.795256   -0.235681    0.704809
      7          6           0       -0.907390    1.248609    0.319901
      8          6           0        0.522355    1.566284   -0.144899
      9          1           0        2.694399   -0.650822   -1.732438
     10          1           0        3.068400    0.666723   -0.613727
     11          1           0        0.647242    0.445387   -1.963310
     12          1           0        1.081391   -2.672934   -0.596507
     13          1           0        0.607664   -2.326875    1.068026
     14          1           0        3.198627   -1.910533    0.294492
     15          1           0        2.410988   -0.692621    1.313737
     16          1           0       -0.327364   -0.278474    1.700650
     17          1           0       -1.194429    1.860189    1.186695
     18          1           0        0.543212    2.452384   -0.791892
     19          8           0        1.388462    1.754401    0.979184
     20          1           0        1.060587    2.530604    1.464141
     21          8           0       -1.806721    1.501461   -0.765892
     22          1           0       -2.390482    0.717188   -0.844669
     23          6           0       -2.123881   -0.987161    0.784506
     24          1           0       -1.960210   -2.000286    1.175662
     25          1           0       -2.821348   -0.473190    1.452476
     26          8           0       -2.756786   -1.057478   -0.505767
     27          1           0       -2.040846   -1.350313   -1.104422
 ---------------------------------------------------------------------

 SCF Done:  E(RmPW1PW91) =  -594.201656991     A.U. after   12 cycles

      1  C    Isotropic =   167.8453   Anisotropy =    23.7432

      2  C    Isotropic =   126.7902   Anisotropy =    60.6234

      3  N    Isotropic =   197.9298   Anisotropy =    80.4550

      4  C    Isotropic =   142.4242   Anisotropy =    55.3545

      5  C    Isotropic =   168.2065   Anisotropy =    23.5900

      6  C    Isotropic =   127.5287   Anisotropy =    47.5736

      7  C    Isotropic =   110.1725   Anisotropy =    31.0725

      8  C    Isotropic =   115.7017   Anisotropy =    30.3830

      9  H    Isotropic =    29.7833   Anisotropy =    12.2510

     10  H    Isotropic =    29.4190   Anisotropy =     9.5532

     11  H    Isotropic =    27.6134   Anisotropy =     7.9194

     12  H    Isotropic =    28.7074   Anisotropy =    11.8830

     13  H    Isotropic =    28.8042   Anisotropy =     8.7108

     14  H    Isotropic =    30.0721   Anisotropy =    12.7834

     15  H    Isotropic =    29.7458   Anisotropy =     8.0822

     16  H    Isotropic =    28.7108   Anisotropy =     5.1651

     17  H    Isotropic =    27.4169   Anisotropy =     5.5633

     18  H    Isotropic =    27.6166   Anisotropy =     6.4227

     19  O    Isotropic =   293.6396   Anisotropy =    82.8063

     20  H    Isotropic =    30.4721   Anisotropy =    20.5281

     21  O    Isotropic =   299.8870   Anisotropy =    50.6445

     22  H    Isotropic =    26.4554   Anisotropy =    24.5030

     23  C    Isotropic =   131.9965   Anisotropy =    54.6481

     24  H    Isotropic =    27.5998   Anisotropy =     8.0422

     25  H    Isotropic =    27.5775   Anisotropy =     6.9816

     26  O    Isotropic =   316.3584   Anisotropy =    31.8406

     27  H    Isotropic =    28.2344   Anisotropy =    15.0677

 The electronic state is 1-A.
 Alpha  occ. eigenvalues --  -19.26584 -19.25722 -19.24513 -14.41634 -10.30365
 Alpha  occ. eigenvalues --  -10.30181 -10.30135 -10.28454 -10.27746 -10.26887
 Alpha  occ. eigenvalues --  -10.24431 -10.24116  -1.07489  -1.06316  -1.04407
 Alpha  occ. eigenvalues --   -0.96100  -0.82394  -0.79067  -0.75535  -0.71713
 Alpha  occ. eigenvalues --   -0.67027  -0.61980  -0.59962  -0.57610  -0.55653
 Alpha  occ. eigenvalues --   -0.52774  -0.51328  -0.50707  -0.49212  -0.46955
 Alpha  occ. eigenvalues --   -0.46469  -0.45624  -0.42622  -0.42174  -0.40820
 Alpha  occ. eigenvalues --   -0.39508  -0.38737  -0.37703  -0.36730  -0.35344
 Alpha  occ. eigenvalues --   -0.34699  -0.34155  -0.33772  -0.31252  -0.29330
 Alpha  occ. eigenvalues --   -0.28523  -0.23846
 Alpha virt. eigenvalues --    0.00488   0.01637   0.01797   0.02461   0.04044
 Alpha virt. eigenvalues --    0.04305   0.04439   0.04923   0.05568   0.07054
 Alpha virt. eigenvalues --    0.07436   0.08243   0.08372   0.08785   0.09783

 Mulliken atomic charges:
              1
     1  C   -0.466927
     2  C    0.052769
     3  N   -0.280200
     4  C   -0.245869
     5  C   -0.298731
     6  C    0.269775
     7  C   -0.290399
     8  C    0.087325
     9  H    0.174790
    10  H    0.180525
    11  H    0.171031
    12  H    0.165143
    13  H    0.163024
    14  H    0.168876
    15  H    0.182662
    16  H    0.181963
    17  H    0.161197
    18  H    0.167175
    19  O   -0.564472
    20  H    0.386072
    21  O   -0.562854
    22  H    0.407857
    23  C   -0.372288
    24  H    0.164891
    25  H    0.177970
    26  O   -0.589175
    27  H    0.407869
 Sum of Mulliken atomic charges =   0.00000

 Dipole moment (field-independent basis, Debye):
    X=              2.0548    Y=             -0.9114    Z=              2.5086  Tot=              3.3683
 Quadrupole moment (field-independent basis, Debye-Ang):
   XX=            -83.3515   YY=            -69.4105   ZZ=            -69.9285
   XY=              0.2314   XZ=             -7.1649   YZ=              3.6323

 Normal termination of Gaussian 09 at Fri May 17 12:32:14 2024.
