 Gaussian 09, Revision C.01,
 Gaussian 09:  AM64L-G09RevC.01 23-Sep-2011

 ------------------------------------------------
 # mpw1pw91/6-31+G** nmr scrf=(pcm,solvent=water)
 ------------------------------------------------

 99/9=1/99;
 -------
 comment
 -------
 Charge =  0 Multiplicity = 1

                         Standard orientation:
 ---------------------------------------------------------------------
 Center     Atomic      Atomic             Coordinates (Angstroms)
 Number     Number       Type             X           Y           Z
 ---------------------------------------------------------------------
      1          6           0       -2.455603    0.442103    0.043122
      2          6           0       -1.125883    0.265979    0.793160
      3          7           0       -0.565291   -1.057850    0.337068
      4          6           0       -1.546276   -1.664754   -0.596127
      5          6           0       -2.878223   -1.006506   -0.237806
      6          6           0        0.773810   -0.830008   -0.252491
      7          6           0        0.770887    0.661361   -0.636480
      8          6           0       -0.026935    1.310824    0.491404
      9          1           0       -3.190582    1.007528    0.624254
     10          1           0       -2.295886    0.974130   -0.901461
     11          1           0       -1.317555    0.228712    1.872099
     12          1           0       -1.565723   -2.755446   -0.487008
     13          1           0       -1.291434   -1.444643   -1.644683
     14          1           0       -3.301004   -1.464549    0.664829
     15          1           0       -3.616398   -1.095284   -1.040993
     16          1           0        0.896683   -1.461272   -1.138430
     17          1           0        0.207644    0.791396   -1.571986
     18          1           0        0.626175    1.430946    1.365294
     19          8           0       -0.488116    2.594628    0.069016
     20          1           0       -0.841571    3.049788    0.851425
     21          8           0        2.092590    1.185070   -0.798544
     22          1           0        2.022974    2.153765   -0.846910
     23          6           0        1.889722   -1.211130    0.734385
     24          1           0        1.832051   -0.593570    1.643203
     25          1           0        1.750405   -2.252853    1.038862
     26          8           0        3.191419   -1.125697    0.146904
     27          1           0        3.265120   -0.202919   -0.161977
 ---------------------------------------------------------------------

 SCF Done:  E(RmPW1PW91) =  -594.197019401     A.U. after   13 cycles

      1  C    Isotropic =   166.3764   Anisotropy =    19.0093

      2  C    Isotropic =   129.8837   Anisotropy =    51.5637

      3  N    Isotropic =   199.8942   Anisotropy =    73.3748

      4  C    Isotropic =   136.9644   Anisotropy =    58.1516

      5  C    Isotropic =   167.3575   Anisotropy =    19.4442

      6  C    Isotropic =   129.5882   Anisotropy =    55.5862

      7  C    Isotropic =   117.8940   Anisotropy =    54.6255

      8  C    Isotropic =   116.6632   Anisotropy =    33.4665

      9  H    Isotropic =    29.9738   Anisotropy =    10.8289

     10  H    Isotropic =    29.8388   Anisotropy =     6.6292

     11  H    Isotropic =    28.0866   Anisotropy =     8.1410

     12  H    Isotropic =    28.2987   Anisotropy =     9.8500

     13  H    Isotropic =    28.9977   Anisotropy =     8.2270

     14  H    Isotropic =    29.8671   Anisotropy =    11.1518

     15  H    Isotropic =    29.6965   Anisotropy =    11.7215

     16  H    Isotropic =    28.6112   Anisotropy =     5.0053

     17  H    Isotropic =    27.0763   Anisotropy =     4.2257

     18  H    Isotropic =    27.0846   Anisotropy =     3.6729

     19  O    Isotropic =   307.0185   Anisotropy =    54.8915

     20  H    Isotropic =    29.9620   Anisotropy =    20.5345

     21  O    Isotropic =   306.6474   Anisotropy =    28.3143

     22  H    Isotropic =    29.2713   Anisotropy =    18.3468

     23  C    Isotropic =   128.5377   Anisotropy =    70.1709

     24  H    Isotropic =    27.6086   Anisotropy =     3.4386

     25  H    Isotropic =    28.0519   Anisotropy =     5.1323

     26  O    Isotropic =   306.6204   Anisotropy =    33.1700

     27  H    Isotropic =    27.9766   Anisotropy =    19.6796

 The electronic state is 1-A.
 Alpha  occ. eigenvalues --  -19.27032 -19.26357 -19.24435 -14.41525 -10.30872
 Alpha  occ. eigenvalues --  -10.30637 -10.29130 -10.28278 -10.27829 -10.26986
 Alpha  occ. eigenvalues --  -10.24613 -10.24519  -1.08056  -1.06149  -1.04497
 Alpha  occ. eigenvalues --   -0.96692  -0.83023  -0.79233  -0.74711  -0.71980
 Alpha  occ. eigenvalues --   -0.67135  -0.61140  -0.60359  -0.59235  -0.55428
 Alpha  occ. eigenvalues --   -0.53794  -0.52072  -0.49974  -0.49306  -0.46979
 Alpha  occ. eigenvalues --   -0.46399  -0.45156  -0.43352  -0.41858  -0.41149
 Alpha  occ. eigenvalues --   -0.40050  -0.38182  -0.37776  -0.36989  -0.35592
 Alpha  occ. eigenvalues --   -0.35306  -0.34261  -0.33123  -0.31003  -0.29907
 Alpha  occ. eigenvalues --   -0.28978  -0.23156
 Alpha virt. eigenvalues --    0.00386   0.01187   0.01765   0.02160   0.03774
 Alpha virt. eigenvalues --    0.04537   0.04637   0.04932   0.05546   0.06535
 Alpha virt. eigenvalues --    0.07950   0.08322   0.08928   0.09072   0.09685

 Mulliken atomic charges:
              1
     1  C   -0.394164
     2  C   -0.040906
     3  N   -0.084492
     4  C   -0.215550
     5  C   -0.348543
     6  C   -0.386675
     7  C   -0.083172
     8  C   -0.081754
     9  H    0.176376
    10  H    0.184448
    11  H    0.171921
    12  H    0.164907
    13  H    0.161581
    14  H    0.178202
    15  H    0.178024
    16  H    0.177968
    17  H    0.181635
    18  H    0.182152
    19  O   -0.538800
    20  H    0.392378
    21  O   -0.573937
    22  H    0.401299
    23  C    0.026333
    24  H    0.151950
    25  H    0.169677
    26  O   -0.551938
    27  H    0.401081
 Sum of Mulliken atomic charges =   0.00000

 Dipole moment (field-independent basis, Debye):
    X=             -4.5404    Y=              3.3071    Z=              0.9110  Tot=              5.6905
 Quadrupole moment (field-independent basis, Debye-Ang):
   XX=            -83.6151   YY=            -70.8774   ZZ=            -70.6228
   XY=              8.0116   XZ=             -0.5113   YZ=              6.5189

 Normal termination of Gaussian 09 at Fri May 17 12:27:58 2024.
