 Gaussian 09, Revision C.01,
 Gaussian 09:  AM64L-G09RevC.01 23-Sep-2011

 ------------------------------------------------
 # mpw1pw91/6-31+G** nmr scrf=(pcm,solvent=water)
 ------------------------------------------------

 99/9=1/99;
 -------
 comment
 -------
 Charge =  0 Multiplicity = 1

                         Standard orientation:
 ---------------------------------------------------------------------
 Center     Atomic      Atomic             Coordinates (Angstroms)
 Number     Number       Type             X           Y           Z
 ---------------------------------------------------------------------
      1          6           0       -2.277788    0.564062   -0.198135
      2          6           0       -1.051076    0.469829    0.755191
      3          7           0       -0.444580   -0.865828    0.542843
      4          6           0       -1.588349   -1.746094    0.246237
      5          6           0       -2.573708   -0.905963   -0.601453
      6          6           0        0.516592   -0.743803   -0.594512
      7          6           0        0.859162    0.775772   -0.692061
      8          6           0        0.112348    1.419472    0.492750
      9          1           0       -3.125093    1.032620    0.311380
     10          1           0       -2.053926    1.176128   -1.076941
     11          1           0       -1.394243    0.546529    1.792525
     12          1           0       -2.055665   -2.040782    1.193486
     13          1           0       -1.249924   -2.659229   -0.251759
     14          1           0       -3.612504   -1.194779   -0.414276
     15          1           0       -2.382846   -1.055080   -1.669354
     16          1           0        0.064028   -1.077743   -1.538309
     17          1           0        0.461453    1.189376   -1.623021
     18          1           0        0.787230    1.404008    1.361583
     19          8           0       -0.342237    2.748851    0.254889
     20          1           0        0.448243    3.292268    0.097558
     21          8           0        2.254065    1.079832   -0.705402
     22          1           0        2.635565    0.562922    0.034466
     23          6           0        1.732741   -1.624293   -0.325848
     24          1           0        1.418028   -2.673306   -0.239612
     25          1           0        2.455859   -1.550278   -1.142461
     26          8           0        2.416546   -1.208140    0.867803
     27          1           0        1.709330   -1.110091    1.533504
 ---------------------------------------------------------------------

 SCF Done:  E(RmPW1PW91) =  -594.199313786     A.U. after   12 cycles

      1  C    Isotropic =   169.6481   Anisotropy =    28.5821

      2  C    Isotropic =   129.0580   Anisotropy =    58.8318

      3  N    Isotropic =   188.4609   Anisotropy =    68.6423

      4  C    Isotropic =   142.4222   Anisotropy =    58.6513

      5  C    Isotropic =   171.8253   Anisotropy =    31.6090

      6  C    Isotropic =   130.3387   Anisotropy =    38.3159

      7  C    Isotropic =   115.0016   Anisotropy =    34.8373

      8  C    Isotropic =   111.3074   Anisotropy =    32.7021

      9  H    Isotropic =    29.8602   Anisotropy =    11.4532

     10  H    Isotropic =    29.7808   Anisotropy =     7.6780

     11  H    Isotropic =    28.1036   Anisotropy =     8.9292

     12  H    Isotropic =    28.7736   Anisotropy =    11.7927

     13  H    Isotropic =    28.6416   Anisotropy =     9.3281

     14  H    Isotropic =    29.9185   Anisotropy =    12.1628

     15  H    Isotropic =    29.6261   Anisotropy =    10.2526

     16  H    Isotropic =    28.5955   Anisotropy =     4.7106

     17  H    Isotropic =    27.4310   Anisotropy =     2.7458

     18  H    Isotropic =    27.3144   Anisotropy =     3.3700

     19  O    Isotropic =   298.0236   Anisotropy =    31.3438

     20  H    Isotropic =    29.3377   Anisotropy =    18.6735

     21  O    Isotropic =   293.3208   Anisotropy =    40.4601

     22  H    Isotropic =    27.7650   Anisotropy =    18.4012

     23  C    Isotropic =   132.7036   Anisotropy =    49.4395

     24  H    Isotropic =    27.9044   Anisotropy =     8.4467

     25  H    Isotropic =    27.8499   Anisotropy =     7.0398

     26  O    Isotropic =   312.3549   Anisotropy =    23.1218

     27  H    Isotropic =    28.7521   Anisotropy =    14.5574

 The electronic state is 1-A.
 Alpha  occ. eigenvalues --  -19.26433 -19.25991 -19.25148 -14.42160 -10.30460
 Alpha  occ. eigenvalues --  -10.30419 -10.29871 -10.28584 -10.27878 -10.27132
 Alpha  occ. eigenvalues --  -10.24491 -10.24452  -1.07533  -1.06399  -1.04796
 Alpha  occ. eigenvalues --   -0.97371  -0.81750  -0.79450  -0.75804  -0.71418
 Alpha  occ. eigenvalues --   -0.67513  -0.62577  -0.59933  -0.57953  -0.54979
 Alpha  occ. eigenvalues --   -0.54613  -0.50928  -0.50596  -0.49384  -0.46951
 Alpha  occ. eigenvalues --   -0.46261  -0.44688  -0.43650  -0.42998  -0.40964
 Alpha  occ. eigenvalues --   -0.39984  -0.38163  -0.37711  -0.36557  -0.35873
 Alpha  occ. eigenvalues --   -0.35359  -0.34415  -0.33103  -0.31689  -0.30446
 Alpha  occ. eigenvalues --   -0.27705  -0.24806
 Alpha virt. eigenvalues --    0.00613   0.01247   0.01896   0.02212   0.03620
 Alpha virt. eigenvalues --    0.04339   0.04647   0.04725   0.04920   0.07280
 Alpha virt. eigenvalues --    0.07840   0.08258   0.08439   0.08983   0.09246

 Mulliken atomic charges:
              1
     1  C   -0.317937
     2  C   -0.073196
     3  N   -0.203977
     4  C   -0.241720
     5  C   -0.293214
     6  C    0.068180
     7  C   -0.141233
     8  C   -0.170872
     9  H    0.174170
    10  H    0.181748
    11  H    0.182479
    12  H    0.171022
    13  H    0.172092
    14  H    0.175743
    15  H    0.175491
    16  H    0.177778
    17  H    0.186192
    18  H    0.173163
    19  O   -0.527942
    20  H    0.384627
    21  O   -0.546975
    22  H    0.399078
    23  C   -0.255884
    24  H    0.164239
    25  H    0.182026
    26  O   -0.595905
    27  H    0.400831
 Sum of Mulliken atomic charges =   0.00000

 Dipole moment (field-independent basis, Debye):
    X=             -2.6482    Y=             -2.1839    Z=             -0.2731  Tot=              3.4433
 Quadrupole moment (field-independent basis, Debye-Ang):
   XX=            -81.0814   YY=            -73.8779   ZZ=            -71.5656
   XY=              4.8966   XZ=              0.8173   YZ=              3.6503

 Normal termination of Gaussian 09 at Fri May 17 12:51:57 2024.
