 Gaussian 09, Revision C.01,
 Gaussian 09:  AM64L-G09RevC.01 23-Sep-2011

 ------------------------------------------------
 # mpw1pw91/6-31+G** nmr scrf=(pcm,solvent=water)
 ------------------------------------------------

 99/9=1/99;
 -------
 comment
 -------
 Charge =  0 Multiplicity = 1

                         Standard orientation:
 ---------------------------------------------------------------------
 Center     Atomic      Atomic             Coordinates (Angstroms)
 Number     Number       Type             X           Y           Z
 ---------------------------------------------------------------------
      1          6           0        2.400850   -0.591731   -0.543003
      2          6           0        1.153820    0.273718   -0.819442
      3          7           0       -0.043933   -0.619183   -0.625071
      4          6           0        0.458581   -1.954144   -0.227596
      5          6           0        1.870925   -1.738434    0.331972
      6          6           0       -0.953012    0.033845    0.345494
      7          6           0       -0.604083    1.526959    0.232720
      8          6           0        0.929181    1.489536    0.097284
      9          1           0        2.788939   -0.988156   -1.488144
     10          1           0        3.201977   -0.020066   -0.067100
     11          1           0        1.174664    0.644530   -1.851322
     12          1           0        0.503538   -2.606881   -1.110461
     13          1           0       -0.226567   -2.419405    0.484367
     14          1           0        2.489498   -2.640584    0.277623
     15          1           0        1.820370   -1.424988    1.380445
     16          1           0       -0.722575   -0.276536    1.377876
     17          1           0       -0.919059    2.090095    1.115415
     18          1           0        1.311938    2.416379   -0.347399
     19          8           0        1.539617    1.260709    1.371758
     20          1           0        1.344815    2.036525    1.924363
     21          8           0       -1.222628    2.182297   -0.880879
     22          1           0       -1.028778    1.663939   -1.680503
     23          6           0       -2.428141   -0.251766    0.101744
     24          1           0       -3.031407    0.411155    0.740460
     25          1           0       -2.686591   -0.040660   -0.943321
     26          8           0       -2.698830   -1.624009    0.416891
     27          1           0       -3.627232   -1.790934    0.186000
 ---------------------------------------------------------------------

 SCF Done:  E(RmPW1PW91) =  -594.194025852     A.U. after   13 cycles

      1  C    Isotropic =   168.2703   Anisotropy =    23.6491

      2  C    Isotropic =   127.4174   Anisotropy =    62.9108

      3  N    Isotropic =   189.9239   Anisotropy =    82.1856

      4  C    Isotropic =   140.4961   Anisotropy =    56.4891

      5  C    Isotropic =   168.3025   Anisotropy =    24.3988

      6  C    Isotropic =   127.6920   Anisotropy =    35.7558

      7  C    Isotropic =   111.1996   Anisotropy =    29.4957

      8  C    Isotropic =   116.4044   Anisotropy =    30.0585

      9  H    Isotropic =    29.8984   Anisotropy =    12.4500

     10  H    Isotropic =    29.4724   Anisotropy =     9.4457

     11  H    Isotropic =    27.7296   Anisotropy =     8.2880

     12  H    Isotropic =    28.6043   Anisotropy =    11.5394

     13  H    Isotropic =    28.4176   Anisotropy =     7.6715

     14  H    Isotropic =    30.1337   Anisotropy =    12.7617

     15  H    Isotropic =    29.8272   Anisotropy =     8.0013

     16  H    Isotropic =    28.4286   Anisotropy =     5.4482

     17  H    Isotropic =    27.7820   Anisotropy =     5.3241

     18  H    Isotropic =    27.6529   Anisotropy =     6.5691

     19  O    Isotropic =   291.7333   Anisotropy =    78.0638

     20  H    Isotropic =    30.3444   Anisotropy =    20.4358

     21  O    Isotropic =   298.4861   Anisotropy =    29.9730

     22  H    Isotropic =    30.3409   Anisotropy =    13.0764

     23  C    Isotropic =   127.4092   Anisotropy =    46.6166

     24  H    Isotropic =    27.5295   Anisotropy =     6.0967

     25  H    Isotropic =    27.8331   Anisotropy =     5.6445

     26  O    Isotropic =   313.0479   Anisotropy =    84.3273

     27  H    Isotropic =    30.2023   Anisotropy =    21.5727

 The electronic state is 1-A.
 Alpha  occ. eigenvalues --  -19.26152 -19.25856 -19.25362 -14.40968 -10.30737
 Alpha  occ. eigenvalues --  -10.30332 -10.29376 -10.27933 -10.27808 -10.26320
 Alpha  occ. eigenvalues --  -10.24378 -10.23908  -1.07253  -1.05773  -1.05405
 Alpha  occ. eigenvalues --   -0.95773  -0.82364  -0.78969  -0.75406  -0.71685
 Alpha  occ. eigenvalues --   -0.66343  -0.62476  -0.59564  -0.57058  -0.54876
 Alpha  occ. eigenvalues --   -0.54035  -0.52457  -0.50636  -0.48699  -0.46491
 Alpha  occ. eigenvalues --   -0.46028  -0.44518  -0.42461  -0.41900  -0.41127
 Alpha  occ. eigenvalues --   -0.38985  -0.38127  -0.37805  -0.36747  -0.35209
 Alpha  occ. eigenvalues --   -0.34617  -0.34309  -0.32675  -0.31821  -0.29618
 Alpha  occ. eigenvalues --   -0.28246  -0.23058
 Alpha virt. eigenvalues --    0.00536   0.01412   0.01780   0.02147   0.03068
 Alpha virt. eigenvalues --    0.04245   0.04761   0.05018   0.05508   0.07155
 Alpha virt. eigenvalues --    0.07440   0.08177   0.08383   0.08775   0.09419

 Mulliken atomic charges:
              1
     1  C   -0.482562
     2  C    0.077726
     3  N   -0.170211
     4  C   -0.282240
     5  C   -0.282913
     6  C   -0.088762
     7  C   -0.241939
     8  C    0.030307
     9  H    0.173823
    10  H    0.179854
    11  H    0.168304
    12  H    0.156908
    13  H    0.173689
    14  H    0.166432
    15  H    0.179533
    16  H    0.177404
    17  H    0.177580
    18  H    0.173229
    19  O   -0.565235
    20  H    0.388385
    21  O   -0.508542
    22  H    0.383517
    23  C   -0.106195
    24  H    0.158327
    25  H    0.161159
    26  O   -0.592949
    27  H    0.395371
 Sum of Mulliken atomic charges =   0.00000

 Dipole moment (field-independent basis, Debye):
    X=             -0.2031    Y=              1.2993    Z=              0.0598  Tot=              1.3165
 Quadrupole moment (field-independent basis, Debye-Ang):
   XX=            -66.7425   YY=            -74.9586   ZZ=            -70.5363
   XY=              3.3497   XZ=             -1.6979   YZ=              5.2813

 Normal termination of Gaussian 09 at Fri May 17 12:15:00 2024.
