 Gaussian 09, Revision C.01,
 Gaussian 09:  AM64L-G09RevC.01 23-Sep-2011

 ------------------------------------------------
 # mpw1pw91/6-31+G** nmr scrf=(pcm,solvent=water)
 ------------------------------------------------

 99/9=1/99;
 -------
 comment
 -------
 Charge =  0 Multiplicity = 1

                         Standard orientation:
 ---------------------------------------------------------------------
 Center     Atomic      Atomic             Coordinates (Angstroms)
 Number     Number       Type             X           Y           Z
 ---------------------------------------------------------------------
      1          6           0        2.417382    0.047967   -0.640345
      2          6           0        0.913065    0.343501   -0.783028
      3          7           0        0.201217   -0.771721   -0.065191
      4          6           0        1.213298   -1.582725    0.637699
      5          6           0        2.459661   -1.437944   -0.237626
      6          6           0       -0.867244   -0.190425    0.774379
      7          6           0       -1.077588    1.228853    0.207375
      8          6           0        0.356191    1.641479   -0.176601
      9          1           0        2.965946    0.256454   -1.563512
     10          1           0        2.851430    0.661100    0.154263
     11          1           0        0.615914    0.326048   -1.837881
     12          1           0        0.884657   -2.622424    0.745200
     13          1           0        1.407205   -1.188751    1.650083
     14          1           0        2.372033   -2.078786   -1.123195
     15          1           0        3.376461   -1.715069    0.291967
     16          1           0       -0.539917   -0.088411    1.819909
     17          1           0       -1.495673    1.900730    0.969030
     18          1           0        0.356401    2.470091   -0.896026
     19          8           0        1.101727    1.988712    0.994015
     20          1           0        0.668738    2.766316    1.384948
     21          8           0       -1.913006    1.271731   -0.955711
     22          1           0       -2.281392    0.372564   -1.088626
     23          6           0       -2.109435   -1.085358    0.740573
     24          1           0       -1.931403   -2.002540    1.317728
     25          1           0       -2.977897   -0.575172    1.167432
     26          8           0       -2.433374   -1.416132   -0.620982
     27          1           0       -1.555773   -1.626672   -1.008118
 ---------------------------------------------------------------------

 SCF Done:  E(RmPW1PW91) =  -594.203123475     A.U. after   13 cycles

      1  C    Isotropic =   171.8111   Anisotropy =    20.3679

      2  C    Isotropic =   126.2969   Anisotropy =    59.8317

      3  N    Isotropic =   196.0360   Anisotropy =    75.8065

      4  C    Isotropic =   140.2517   Anisotropy =    53.8688

      5  C    Isotropic =   163.3218   Anisotropy =    25.9700

      6  C    Isotropic =   127.9516   Anisotropy =    48.4298

      7  C    Isotropic =   107.4285   Anisotropy =    30.6596

      8  C    Isotropic =   117.7107   Anisotropy =    34.0753

      9  H    Isotropic =    29.8895   Anisotropy =    11.6786

     10  H    Isotropic =    29.3474   Anisotropy =     7.5510

     11  H    Isotropic =    27.5360   Anisotropy =     7.3975

     12  H    Isotropic =    28.4109   Anisotropy =     9.7229

     13  H    Isotropic =    29.1849   Anisotropy =     8.5666

     14  H    Isotropic =    29.3510   Anisotropy =    10.5461

     15  H    Isotropic =    29.4434   Anisotropy =    11.7788

     16  H    Isotropic =    28.6037   Anisotropy =     5.2192

     17  H    Isotropic =    27.2465   Anisotropy =     5.3226

     18  H    Isotropic =    27.7167   Anisotropy =     6.6882

     19  O    Isotropic =   291.3294   Anisotropy =    80.3144

     20  H    Isotropic =    30.3297   Anisotropy =    20.1389

     21  O    Isotropic =   299.7252   Anisotropy =    38.8038

     22  H    Isotropic =    26.5126   Anisotropy =    23.9140

     23  C    Isotropic =   133.9455   Anisotropy =    56.4566

     24  H    Isotropic =    27.6507   Anisotropy =     8.8001

     25  H    Isotropic =    27.6658   Anisotropy =     7.0507

     26  O    Isotropic =   311.5986   Anisotropy =    36.8626

     27  H    Isotropic =    27.6438   Anisotropy =    16.7754

 The electronic state is 1-A.
 Alpha  occ. eigenvalues --  -19.26333 -19.25874 -19.24636 -14.41813 -10.30510
 Alpha  occ. eigenvalues --  -10.30221 -10.30055 -10.28524 -10.27837 -10.27027
 Alpha  occ. eigenvalues --  -10.24634 -10.24397  -1.07478  -1.06379  -1.04452
 Alpha  occ. eigenvalues --   -0.96383  -0.82777  -0.79145  -0.75413  -0.71782
 Alpha  occ. eigenvalues --   -0.66992  -0.61530  -0.60714  -0.57562  -0.55881
 Alpha  occ. eigenvalues --   -0.52885  -0.51774  -0.50729  -0.48559  -0.48366
 Alpha  occ. eigenvalues --   -0.45689  -0.45257  -0.43098  -0.41885  -0.40764
 Alpha  occ. eigenvalues --   -0.39981  -0.38746  -0.38115  -0.36447  -0.35547
 Alpha  occ. eigenvalues --   -0.35131  -0.34274  -0.33523  -0.31591  -0.29545
 Alpha  occ. eigenvalues --   -0.28306  -0.23990
 Alpha virt. eigenvalues --    0.00647   0.01614   0.01830   0.02502   0.04141
 Alpha virt. eigenvalues --    0.04354   0.04559   0.05019   0.05531   0.07089
 Alpha virt. eigenvalues --    0.07565   0.08026   0.08823   0.09119   0.09703

 Mulliken atomic charges:
              1
     1  C   -0.536933
     2  C    0.064778
     3  N   -0.312518
     4  C   -0.301458
     5  C   -0.311730
     6  C    0.384384
     7  C   -0.354039
     8  C    0.130943
     9  H    0.173269
    10  H    0.189740
    11  H    0.176837
    12  H    0.167728
    13  H    0.152727
    14  H    0.177339
    15  H    0.174849
    16  H    0.172321
    17  H    0.163873
    18  H    0.169152
    19  O   -0.572972
    20  H    0.387901
    21  O   -0.558323
    22  H    0.408541
    23  C   -0.315144
    24  H    0.167209
    25  H    0.177538
    26  O   -0.590313
    27  H    0.414302
 Sum of Mulliken atomic charges =   0.00000

 Dipole moment (field-independent basis, Debye):
    X=              2.1567    Y=             -0.2802    Z=              2.5876  Tot=              3.3802
 Quadrupole moment (field-independent basis, Debye-Ang):
   XX=            -81.5066   YY=            -69.6854   ZZ=            -71.3864
   XY=             -2.3853   XZ=             -8.8127   YZ=              2.4625

 Normal termination of Gaussian 09 at Fri May 17 12:35:03 2024.
