 Gaussian 09, Revision C.01,
 Gaussian 09:  AM64L-G09RevC.01 23-Sep-2011

 ------------------------------------------------
 # mpw1pw91/6-31+G** nmr scrf=(pcm,solvent=water)
 ------------------------------------------------

 99/9=1/99;
 -------
 comment
 -------
 Charge =  0 Multiplicity = 1

                         Standard orientation:
 ---------------------------------------------------------------------
 Center     Atomic      Atomic             Coordinates (Angstroms)
 Number     Number       Type             X           Y           Z
 ---------------------------------------------------------------------
      1          6           0       -2.204172    1.063466   -0.114552
      2          6           0       -1.260197    0.238969   -0.997838
      3          7           0        0.063742    0.919965   -0.902918
      4          6           0        0.034943    1.813900    0.296052
      5          6           0       -1.290207    1.546312    1.021042
      6          6           0        1.068068   -0.164910   -0.962161
      7          6           0        0.459509   -1.382849   -0.247544
      8          6           0       -1.051557   -1.258387   -0.583816
      9          1           0       -2.577982    1.918817   -0.689811
     10          1           0       -3.065987    0.487168    0.229308
     11          1           0       -1.599799    0.242470   -2.039638
     12          1           0        0.063341    2.858223   -0.044963
     13          1           0        0.908770    1.659054    0.927051
     14          1           0       -1.673120    2.436119    1.531502
     15          1           0       -1.166744    0.754718    1.768314
     16          1           0        1.137534   -0.460633   -2.020676
     17          1           0        0.886610   -2.323824   -0.615793
     18          1           0       -1.297758   -1.911648   -1.425459
     19          8           0       -1.859889   -1.622208    0.543130
     20          1           0       -1.921058   -2.592773    0.555347
     21          8           0        0.651469   -1.317715    1.173187
     22          1           0       -0.242493   -1.433086    1.559655
     23          6           0        2.509838    0.169980   -0.573435
     24          1           0        3.137538   -0.658800   -0.934808
     25          1           0        2.834649    1.074243   -1.099382
     26          8           0        2.755902    0.386444    0.821126
     27          1           0        2.153107   -0.220860    1.293739
 ---------------------------------------------------------------------

 SCF Done:  E(RmPW1PW91) =  -594.190588625     A.U. after   13 cycles

      1  C    Isotropic =   167.7882   Anisotropy =    24.1241

      2  C    Isotropic =   126.9724   Anisotropy =    53.7926

      3  N    Isotropic =   186.4150   Anisotropy =   101.1415

      4  C    Isotropic =   145.1309   Anisotropy =    54.8641

      5  C    Isotropic =   167.2698   Anisotropy =    19.0813

      6  C    Isotropic =   131.0145   Anisotropy =    38.3911

      7  C    Isotropic =   118.5099   Anisotropy =    28.3592

      8  C    Isotropic =   119.6127   Anisotropy =    42.8216

      9  H    Isotropic =    29.7590   Anisotropy =    12.4125

     10  H    Isotropic =    29.4037   Anisotropy =     9.0559

     11  H    Isotropic =    27.9272   Anisotropy =     9.6784

     12  H    Isotropic =    28.6691   Anisotropy =    11.8010

     13  H    Isotropic =    27.2136   Anisotropy =     7.5615

     14  H    Isotropic =    29.9944   Anisotropy =    12.3693

     15  H    Isotropic =    29.8904   Anisotropy =     6.4010

     16  H    Isotropic =    28.9275   Anisotropy =     9.1913

     17  H    Isotropic =    27.4492   Anisotropy =     8.5552

     18  H    Isotropic =    27.2376   Anisotropy =     7.5465

     19  O    Isotropic =   311.3460   Anisotropy =    94.0001

     20  H    Isotropic =    30.0530   Anisotropy =    23.8850

     21  O    Isotropic =   312.2537   Anisotropy =    47.9633

     22  H    Isotropic =    27.6407   Anisotropy =    18.0847

     23  C    Isotropic =   130.9359   Anisotropy =    56.1176

     24  H    Isotropic =    27.1066   Anisotropy =     8.1015

     25  H    Isotropic =    27.3011   Anisotropy =     7.6013

     26  O    Isotropic =   309.9887   Anisotropy =    48.9173

     27  H    Isotropic =    26.8740   Anisotropy =    22.7759

 The electronic state is 1-A.
 Alpha  occ. eigenvalues --  -19.27518 -19.26050 -19.24182 -14.40909 -10.31075
 Alpha  occ. eigenvalues --  -10.30454 -10.29709 -10.28317 -10.27814 -10.25966
 Alpha  occ. eigenvalues --  -10.24345 -10.24026  -1.08935  -1.05721  -1.04108
 Alpha  occ. eigenvalues --   -0.95910  -0.82560  -0.78613  -0.75280  -0.71804
 Alpha  occ. eigenvalues --   -0.66878  -0.62079  -0.59096  -0.58291  -0.56021
 Alpha  occ. eigenvalues --   -0.53442  -0.52201  -0.50143  -0.48001  -0.47244
 Alpha  occ. eigenvalues --   -0.46230  -0.45435  -0.43303  -0.42232  -0.40602
 Alpha  occ. eigenvalues --   -0.39680  -0.38797  -0.37382  -0.36381  -0.35245
 Alpha  occ. eigenvalues --   -0.34707  -0.33951  -0.33316  -0.30930  -0.30213
 Alpha  occ. eigenvalues --   -0.28530  -0.22720
 Alpha virt. eigenvalues --   -0.00287   0.01504   0.02072   0.02309   0.04196
 Alpha virt. eigenvalues --    0.04395   0.04710   0.04916   0.05448   0.07403
 Alpha virt. eigenvalues --    0.07577   0.08423   0.08610   0.08924   0.09900

 Mulliken atomic charges:
              1
     1  C   -0.459133
     2  C   -0.004880
     3  N   -0.131544
     4  C   -0.293577
     5  C   -0.278095
     6  C    0.043057
     7  C    0.087172
     8  C   -0.082704
     9  H    0.175588
    10  H    0.184729
    11  H    0.166874
    12  H    0.151875
    13  H    0.179250
    14  H    0.168819
    15  H    0.171441
    16  H    0.178097
    17  H    0.167895
    18  H    0.180776
    19  O   -0.639106
    20  H    0.417036
    21  O   -0.632478
    22  H    0.406945
    23  C   -0.306046
    24  H    0.154800
    25  H    0.166475
    26  O   -0.583335
    27  H    0.410070
 Sum of Mulliken atomic charges =   0.00000

 Dipole moment (field-independent basis, Debye):
    X=             -3.7485    Y=             -4.0934    Z=             -2.0943  Tot=              5.9324
 Quadrupole moment (field-independent basis, Debye-Ang):
   XX=            -81.6008   YY=            -65.1858   ZZ=            -73.2190
   XY=              0.6673   XZ=             -5.4204   YZ=              3.0144

 Normal termination of Gaussian 09 at Fri May 17 13:24:11 2024.
