 Gaussian 09, Revision C.01,
 Gaussian 09:  AM64L-G09RevC.01 23-Sep-2011

 ------------------------------------------------
 # mpw1pw91/6-31+G** nmr scrf=(pcm,solvent=water)
 ------------------------------------------------

 99/9=1/99;
 -------
 comment
 -------
 Charge =  0 Multiplicity = 1

                         Standard orientation:
 ---------------------------------------------------------------------
 Center     Atomic      Atomic             Coordinates (Angstroms)
 Number     Number       Type             X           Y           Z
 ---------------------------------------------------------------------
      1          6           0       -1.842713    1.394469    0.105179
      2          6           0       -1.093656    0.488236   -0.886515
      3          7           0        0.370060    0.742462   -0.649203
      4          6           0        0.485825    1.675247    0.496844
      5          6           0       -0.809164    2.482380    0.430212
      6          6           0        1.028118   -0.584812   -0.533131
      7          6           0       -0.040981   -1.566272   -0.029801
      8          6           0       -1.316506   -1.051614   -0.737484
      9          1           0       -2.776194    1.785705   -0.310449
     10          1           0       -2.094666    0.839765    1.016532
     11          1           0       -1.345329    0.779119   -1.913331
     12          1           0        1.388561    2.288268    0.401487
     13          1           0        0.543299    1.174481    1.476781
     14          1           0       -0.757823    3.219882   -0.379931
     15          1           0       -1.018225    3.015253    1.363133
     16          1           0        1.271708   -0.919279   -1.552967
     17          1           0        0.187608   -2.598834   -0.304106
     18          1           0       -1.370274   -1.501510   -1.733675
     19          8           0       -2.501831   -1.437524   -0.052534
     20          1           0       -2.238516   -1.508156    0.885235
     21          8           0       -0.224798   -1.601619    1.396969
     22          1           0       -0.276082   -0.692257    1.736913
     23          6           0        2.327530   -0.620721    0.254279
     24          1           0        2.176723   -0.293101    1.289111
     25          1           0        2.674752   -1.663432    0.287331
     26          8           0        3.291735    0.210889   -0.402206
     27          1           0        4.092476    0.201409    0.147026
 ---------------------------------------------------------------------

 SCF Done:  E(RmPW1PW91) =  -594.187743074     A.U. after   13 cycles

      1  C    Isotropic =   166.3008   Anisotropy =    22.4033

      2  C    Isotropic =   128.3838   Anisotropy =    54.2490

      3  N    Isotropic =   195.4423   Anisotropy =    84.9461

      4  C    Isotropic =   144.1348   Anisotropy =    41.2025

      5  C    Isotropic =   167.0975   Anisotropy =    19.6503

      6  C    Isotropic =   132.5274   Anisotropy =    25.3271

      7  C    Isotropic =   115.0787   Anisotropy =    27.8351

      8  C    Isotropic =   121.5779   Anisotropy =    49.1430

      9  H    Isotropic =    29.7363   Anisotropy =    11.1649

     10  H    Isotropic =    29.9938   Anisotropy =     6.3041

     11  H    Isotropic =    27.8221   Anisotropy =     9.0774

     12  H    Isotropic =    28.2877   Anisotropy =     9.1258

     13  H    Isotropic =    28.5831   Anisotropy =     7.4298

     14  H    Isotropic =    29.6880   Anisotropy =    11.1188

     15  H    Isotropic =    29.6270   Anisotropy =    11.7800

     16  H    Isotropic =    28.2486   Anisotropy =     8.8116

     17  H    Isotropic =    27.7262   Anisotropy =     7.9792

     18  H    Isotropic =    27.2994   Anisotropy =     7.3784

     19  O    Isotropic =   312.6313   Anisotropy =    31.4342

     20  H    Isotropic =    28.6650   Anisotropy =    14.9090

     21  O    Isotropic =   304.8540   Anisotropy =    88.5700

     22  H    Isotropic =    31.0873   Anisotropy =    14.9825

     23  C    Isotropic =   134.1112   Anisotropy =    61.7746

     24  H    Isotropic =    27.2841   Anisotropy =     4.2981

     25  H    Isotropic =    27.4372   Anisotropy =     6.3679

     26  O    Isotropic =   314.3708   Anisotropy =    85.6627

     27  H    Isotropic =    30.1906   Anisotropy =    21.2032

 The electronic state is 1-A.
 Alpha  occ. eigenvalues --  -19.27397 -19.25717 -19.25558 -14.41317 -10.31049
 Alpha  occ. eigenvalues --  -10.30372 -10.30234 -10.28641 -10.27639 -10.27295
 Alpha  occ. eigenvalues --  -10.24818 -10.24751  -1.08503  -1.05870  -1.05132
 Alpha  occ. eigenvalues --   -0.96333  -0.83379  -0.78816  -0.75958  -0.72155
 Alpha  occ. eigenvalues --   -0.66918  -0.62714  -0.60119  -0.57665  -0.55881
 Alpha  occ. eigenvalues --   -0.54288  -0.52298  -0.50771  -0.48815  -0.48244
 Alpha  occ. eigenvalues --   -0.45689  -0.44634  -0.44122  -0.42726  -0.41288
 Alpha  occ. eigenvalues --   -0.39966  -0.37969  -0.37074  -0.36665  -0.35847
 Alpha  occ. eigenvalues --   -0.35683  -0.34840  -0.33832  -0.31637  -0.30122
 Alpha  occ. eigenvalues --   -0.29378  -0.22742
 Alpha virt. eigenvalues --   -0.00217   0.01383   0.01439   0.02323   0.03632
 Alpha virt. eigenvalues --    0.04194   0.04752   0.05298   0.05443   0.07245
 Alpha virt. eigenvalues --    0.08040   0.08407   0.08466   0.08964   0.09249

 Mulliken atomic charges:
              1
     1  C   -0.306556
     2  C   -0.098183
     3  N   -0.237860
     4  C   -0.123065
     5  C   -0.489594
     6  C   -0.043324
     7  C   -0.020936
     8  C   -0.146390
     9  H    0.178789
    10  H    0.163440
    11  H    0.165790
    12  H    0.175212
    13  H    0.138505
    14  H    0.181072
    15  H    0.178865
    16  H    0.178938
    17  H    0.180363
    18  H    0.179336
    19  O   -0.519396
    20  H    0.388564
    21  O   -0.588233
    22  H    0.400492
    23  C   -0.064098
    24  H    0.154277
    25  H    0.169793
    26  O   -0.583682
    27  H    0.387883
 Sum of Mulliken atomic charges =   0.00000

 Dipole moment (field-independent basis, Debye):
    X=              1.9622    Y=              0.7683    Z=              2.6482  Tot=              3.3843
 Quadrupole moment (field-independent basis, Debye-Ang):
   XX=            -74.9469   YY=            -75.0994   ZZ=            -72.0116
   XY=             -8.8421   XZ=              5.5520   YZ=              6.0159

 Normal termination of Gaussian 09 at Fri May 17 13:21:42 2024.
