 Gaussian 09, Revision C.01,
 Gaussian 09:  AM64L-G09RevC.01 23-Sep-2011

 ------------------------------------------------
 # mpw1pw91/6-31+G** nmr scrf=(pcm,solvent=water)
 ------------------------------------------------

 99/9=1/99;
 -------
 comment
 -------
 Charge =  0 Multiplicity = 1

                         Standard orientation:
 ---------------------------------------------------------------------
 Center     Atomic      Atomic             Coordinates (Angstroms)
 Number     Number       Type             X           Y           Z
 ---------------------------------------------------------------------
      1          6           0       -1.927911    1.458375   -0.312689
      2          6           0       -1.013845    0.487021   -1.067057
      3          7           0        0.377352    0.828148   -0.636947
      4          6           0        0.282643    1.670173    0.590748
      5          6           0       -1.192559    1.679834    1.016106
      6          6           0        1.093353   -0.467578   -0.562530
      7          6           0        0.073416   -1.507541   -0.077314
      8          6           0       -1.232532   -1.044883   -0.767872
      9          1           0       -2.000525    2.400325   -0.869425
     10          1           0       -2.938111    1.060177   -0.189299
     11          1           0       -1.108725    0.628065   -2.150073
     12          1           0        0.603883    2.691048    0.341665
     13          1           0        0.941266    1.318064    1.387576
     14          1           0       -1.477147    2.611282    1.516408
     15          1           0       -1.399765    0.851362    1.701594
     16          1           0        1.333785   -0.747017   -1.599974
     17          1           0        0.347860   -2.529021   -0.357461
     18          1           0       -1.337805   -1.572789   -1.720696
     19          8           0       -2.379786   -1.372670    0.007380
     20          1           0       -2.049839   -1.419992    0.926846
     21          8           0       -0.146642   -1.444225    1.344528
     22          1           0        0.371792   -2.151548    1.759118
     23          6           0        2.410477   -0.485405    0.206200
     24          1           0        2.255680   -0.303899    1.275525
     25          1           0        2.840910   -1.487501    0.107641
     26          8           0        3.389108    0.416826   -0.320833
     27          1           0        3.115572    1.314984   -0.072980
 ---------------------------------------------------------------------

 SCF Done:  E(RmPW1PW91) =  -594.188973528     A.U. after   13 cycles

      1  C    Isotropic =   167.3993   Anisotropy =    24.4540

      2  C    Isotropic =   125.8318   Anisotropy =    52.6591

      3  N    Isotropic =   196.2239   Anisotropy =    94.4304

      4  C    Isotropic =   149.0681   Anisotropy =    48.9057

      5  C    Isotropic =   168.1040   Anisotropy =    19.1006

      6  C    Isotropic =   128.3044   Anisotropy =    25.3041

      7  C    Isotropic =   120.7621   Anisotropy =    27.8613

      8  C    Isotropic =   120.4793   Anisotropy =    46.0780

      9  H    Isotropic =    29.7488   Anisotropy =    12.3421

     10  H    Isotropic =    29.3493   Anisotropy =     9.1193

     11  H    Isotropic =    28.0646   Anisotropy =     9.5065

     12  H    Isotropic =    28.8255   Anisotropy =    12.0119

     13  H    Isotropic =    28.2136   Anisotropy =     6.5868

     14  H    Isotropic =    30.0171   Anisotropy =    12.4865

     15  H    Isotropic =    29.8448   Anisotropy =     6.7685

     16  H    Isotropic =    28.4566   Anisotropy =     9.0021

     17  H    Isotropic =    27.6833   Anisotropy =     8.1684

     18  H    Isotropic =    27.4618   Anisotropy =     7.8469

     19  O    Isotropic =   316.5119   Anisotropy =    31.6767

     20  H    Isotropic =    28.2554   Anisotropy =    15.8028

     21  O    Isotropic =   315.5155   Anisotropy =    47.0365

     22  H    Isotropic =    29.8976   Anisotropy =    22.3491

     23  C    Isotropic =   133.0884   Anisotropy =    62.0086

     24  H    Isotropic =    27.2679   Anisotropy =     4.4458

     25  H    Isotropic =    27.6813   Anisotropy =     6.2210

     26  O    Isotropic =   316.5048   Anisotropy =    38.9655

     27  H    Isotropic =    30.1539   Anisotropy =    15.5245

 The electronic state is 1-A.
 Alpha  occ. eigenvalues --  -19.26916 -19.25766 -19.24967 -14.40932 -10.30795
 Alpha  occ. eigenvalues --  -10.30083 -10.29996 -10.28050 -10.27300 -10.26664
 Alpha  occ. eigenvalues --  -10.24165 -10.24074  -1.08155  -1.05828  -1.04559
 Alpha  occ. eigenvalues --   -0.95855  -0.82610  -0.78199  -0.75562  -0.71991
 Alpha  occ. eigenvalues --   -0.66644  -0.62066  -0.59634  -0.57467  -0.56072
 Alpha  occ. eigenvalues --   -0.53417  -0.51460  -0.50515  -0.48899  -0.47955
 Alpha  occ. eigenvalues --   -0.45273  -0.44927  -0.43994  -0.42308  -0.40551
 Alpha  occ. eigenvalues --   -0.38734  -0.37653  -0.37057  -0.35618  -0.35280
 Alpha  occ. eigenvalues --   -0.34782  -0.34286  -0.33771  -0.32439  -0.29281
 Alpha  occ. eigenvalues --   -0.29225  -0.22408
 Alpha virt. eigenvalues --   -0.00137   0.01326   0.01848   0.02006   0.04030
 Alpha virt. eigenvalues --    0.04250   0.04575   0.05005   0.05277   0.07472
 Alpha virt. eigenvalues --    0.07878   0.08223   0.08445   0.08799   0.09800

 Mulliken atomic charges:
              1
     1  C   -0.527456
     2  C    0.042154
     3  N   -0.191140
     4  C   -0.241999
     5  C   -0.284022
     6  C    0.120448
     7  C    0.118055
     8  C   -0.132267
     9  H    0.173485
    10  H    0.186138
    11  H    0.159922
    12  H    0.160257
    13  H    0.151411
    14  H    0.169001
    15  H    0.180834
    16  H    0.172492
    17  H    0.179442
    18  H    0.171071
    19  O   -0.553750
    20  H    0.388625
    21  O   -0.684981
    22  H    0.416338
    23  C   -0.354685
    24  H    0.164385
    25  H    0.177664
    26  O   -0.542629
    27  H    0.381208
 Sum of Mulliken atomic charges =   0.00000

 Dipole moment (field-independent basis, Debye):
    X=              0.7643    Y=             -1.4392    Z=              2.3001  Tot=              2.8189
 Quadrupole moment (field-independent basis, Debye-Ang):
   XX=            -91.1688   YY=            -64.4377   ZZ=            -70.7084
   XY=             -7.0057   XZ=              5.2978   YZ=             -0.1250

 Normal termination of Gaussian 09 at Fri May 17 12:50:55 2024.
