 Gaussian 09, Revision C.01,
 Gaussian 09:  AM64L-G09RevC.01 23-Sep-2011

 ------------------------------------------------
 # mpw1pw91/6-31+G** nmr scrf=(pcm,solvent=water)
 ------------------------------------------------

 99/9=1/99;
 -------
 comment
 -------
 Charge =  0 Multiplicity = 1

                         Standard orientation:
 ---------------------------------------------------------------------
 Center     Atomic      Atomic             Coordinates (Angstroms)
 Number     Number       Type             X           Y           Z
 ---------------------------------------------------------------------
      1          6           0       -1.468011    1.618596    0.268310
      2          6           0       -1.057990    0.649189   -0.882382
      3          7           0        0.435602    0.619245   -0.933792
      4          6           0        0.886376    1.788031   -0.155404
      5          6           0       -0.146395    2.012582    0.956314
      6          6           0        0.892277   -0.746239   -0.518522
      7          6           0       -0.330400   -1.477773    0.049026
      8          6           0       -1.476130   -0.834519   -0.736562
      9          1           0       -1.954586    2.501792   -0.159515
     10          1           0       -2.182847    1.159436    0.956241
     11          1           0       -1.453914    1.034734   -1.828912
     12          1           0        0.890636    2.662230   -0.821916
     13          1           0        1.910141    1.657607    0.195836
     14          1           0       -0.152384    3.045229    1.321577
     15          1           0        0.058320    1.353797    1.805927
     16          1           0        1.170724   -1.290076   -1.433562
     17          1           0       -0.263720   -2.559230   -0.129507
     18          1           0       -1.513044   -1.290254   -1.734993
     19          8           0       -2.700387   -1.078766   -0.047809
     20          1           0       -3.375877   -0.475940   -0.400926
     21          8           0       -0.483078   -1.234429    1.450674
     22          1           0       -1.444839   -1.236960    1.611876
     23          6           0        2.106872   -0.827496    0.393875
     24          1           0        1.963669   -0.240175    1.307248
     25          1           0        2.236231   -1.877606    0.692808
     26          8           0        3.260978   -0.374360   -0.327061
     27          1           0        4.002583   -0.373088    0.299999
 ---------------------------------------------------------------------

 SCF Done:  E(RmPW1PW91) =  -594.187546207     A.U. after   13 cycles

      1  C    Isotropic =   168.9133   Anisotropy =    27.0366

      2  C    Isotropic =   126.6358   Anisotropy =    62.3967

      3  N    Isotropic =   194.0766   Anisotropy =    79.1483

      4  C    Isotropic =   145.3617   Anisotropy =    47.8794

      5  C    Isotropic =   168.2093   Anisotropy =    19.8537

      6  C    Isotropic =   128.5803   Anisotropy =    31.5117

      7  C    Isotropic =   120.2069   Anisotropy =    20.9867

      8  C    Isotropic =   120.4737   Anisotropy =    51.1057

      9  H    Isotropic =    30.1512   Anisotropy =    12.4944

     10  H    Isotropic =    29.5113   Anisotropy =     7.0303

     11  H    Isotropic =    27.9617   Anisotropy =     9.3530

     12  H    Isotropic =    28.8050   Anisotropy =    12.1344

     13  H    Isotropic =    27.9028   Anisotropy =     7.8874

     14  H    Isotropic =    30.1211   Anisotropy =    12.2577

     15  H    Isotropic =    29.7246   Anisotropy =     7.5839

     16  H    Isotropic =    28.0093   Anisotropy =     8.8903

     17  H    Isotropic =    27.6489   Anisotropy =     8.5300

     18  H    Isotropic =    27.0410   Anisotropy =     7.1163

     19  O    Isotropic =   301.9045   Anisotropy =    44.0816

     20  H    Isotropic =    29.9003   Anisotropy =    18.9338

     21  O    Isotropic =   315.6936   Anisotropy =    30.5802

     22  H    Isotropic =    28.8188   Anisotropy =    17.1691

     23  C    Isotropic =   134.0736   Anisotropy =    63.7395

     24  H    Isotropic =    27.3807   Anisotropy =     4.1676

     25  H    Isotropic =    27.5444   Anisotropy =     6.2059

     26  O    Isotropic =   311.6004   Anisotropy =    87.6624

     27  H    Isotropic =    30.2554   Anisotropy =    20.9983

 The electronic state is 1-A.
 Alpha  occ. eigenvalues --  -19.26898 -19.25552 -19.25093 -14.40886 -10.30738
 Alpha  occ. eigenvalues --  -10.30309 -10.29828 -10.28209 -10.27684 -10.26269
 Alpha  occ. eigenvalues --  -10.24134 -10.23681  -1.08120  -1.05714  -1.04846
 Alpha  occ. eigenvalues --   -0.95757  -0.82355  -0.78671  -0.75808  -0.71486
 Alpha  occ. eigenvalues --   -0.66515  -0.61890  -0.59692  -0.57813  -0.54615
 Alpha  occ. eigenvalues --   -0.52853  -0.52157  -0.51824  -0.48587  -0.47922
 Alpha  occ. eigenvalues --   -0.46464  -0.43333  -0.42952  -0.42110  -0.40673
 Alpha  occ. eigenvalues --   -0.40086  -0.37775  -0.37273  -0.36078  -0.35629
 Alpha  occ. eigenvalues --   -0.35112  -0.33665  -0.32435  -0.30512  -0.29797
 Alpha  occ. eigenvalues --   -0.29414  -0.22544
 Alpha virt. eigenvalues --    0.00053   0.01095   0.01876   0.02211   0.03253
 Alpha virt. eigenvalues --    0.04274   0.04858   0.05065   0.05541   0.06971
 Alpha virt. eigenvalues --    0.08208   0.08323   0.08716   0.08979   0.09691

 Mulliken atomic charges:
              1
     1  C   -0.461374
     2  C    0.047451
     3  N   -0.130062
     4  C   -0.287956
     5  C   -0.253343
     6  C   -0.030059
     7  C    0.125810
     8  C   -0.214716
     9  H    0.171732
    10  H    0.177001
    11  H    0.167987
    12  H    0.157861
    13  H    0.173536
    14  H    0.163866
    15  H    0.178420
    16  H    0.167949
    17  H    0.162202
    18  H    0.176187
    19  O   -0.594463
    20  H    0.392946
    21  O   -0.585481
    22  H    0.391110
    23  C   -0.245017
    24  H    0.172926
    25  H    0.165402
    26  O   -0.578004
    27  H    0.388090
 Sum of Mulliken atomic charges =   0.00000

 Dipole moment (field-independent basis, Debye):
    X=             -1.9461    Y=              0.5864    Z=              0.7024  Tot=              2.1505
 Quadrupole moment (field-independent basis, Debye-Ang):
   XX=            -63.1225   YY=            -72.3715   ZZ=            -77.0361
   XY=             -4.6862   XZ=             10.9916   YZ=              2.9763

 Normal termination of Gaussian 09 at Fri May 17 13:16:09 2024.
