 Gaussian 09, Revision C.01,
 Gaussian 09:  AM64L-G09RevC.01 23-Sep-2011

 ------------------------------------------------
 # mpw1pw91/6-31+G** nmr scrf=(pcm,solvent=water)
 ------------------------------------------------

 99/9=1/99;
 -------
 comment
 -------
 Charge =  0 Multiplicity = 1

                         Standard orientation:
 ---------------------------------------------------------------------
 Center     Atomic      Atomic             Coordinates (Angstroms)
 Number     Number       Type             X           Y           Z
 ---------------------------------------------------------------------
      1          6           0        2.328746   -0.480125    0.145413
      2          6           0        1.271476   -0.000373   -0.866962
      3          7           0        0.115418   -0.952775   -0.741233
      4          6           0        0.423787   -1.883259    0.374068
      5          6           0        1.949417   -1.951003    0.368025
      6          6           0       -1.108462   -0.124941   -0.613815
      7          6           0       -0.675392    1.202882    0.017033
      8          6           0        0.693728    1.427431   -0.658284
      9          1           0        3.349407   -0.340826   -0.223205
     10          1           0        2.235307    0.068345    1.087457
     11          1           0        1.680584   -0.065383   -1.881738
     12          1           0       -0.048254   -2.857369    0.203686
     13          1           0        0.082786   -1.513634    1.350031
     14          1           0        2.301456   -2.572569   -0.464370
     15          1           0        2.352793   -2.365318    1.297394
     16          1           0       -1.446385    0.128151   -1.630360
     17          1           0       -1.380447    2.014845   -0.206724
     18          1           0        0.538464    1.909087   -1.629679
     19          8           0        1.562551    2.233783    0.143971
     20          1           0        1.276308    3.157378    0.038669
     21          8           0       -0.500753    1.085426    1.431208
     22          1           0        0.279707    1.640853    1.627654
     23          6           0       -2.280246   -0.834636    0.051927
     24          1           0       -2.438042   -1.811588   -0.426586
     25          1           0       -2.090681   -1.007490    1.117281
     26          8           0       -3.431450    0.002160   -0.117295
     27          1           0       -4.162033   -0.421867    0.361607
 ---------------------------------------------------------------------

 SCF Done:  E(RmPW1PW91) =  -594.190760010     A.U. after   13 cycles

      1  C    Isotropic =   167.7445   Anisotropy =    20.2325

      2  C    Isotropic =   128.7973   Anisotropy =    56.0254

      3  N    Isotropic =   192.3277   Anisotropy =    88.8801

      4  C    Isotropic =   144.8396   Anisotropy =    48.1714

      5  C    Isotropic =   166.6486   Anisotropy =    20.1562

      6  C    Isotropic =   131.1019   Anisotropy =    42.3886

      7  C    Isotropic =   120.3842   Anisotropy =    28.9257

      8  C    Isotropic =   119.7820   Anisotropy =    49.9091

      9  H    Isotropic =    29.9647   Anisotropy =    11.0884

     10  H    Isotropic =    29.5547   Anisotropy =     6.1665

     11  H    Isotropic =    27.7436   Anisotropy =     9.1995

     12  H    Isotropic =    28.8523   Anisotropy =     9.6068

     13  H    Isotropic =    28.3356   Anisotropy =     6.4722

     14  H    Isotropic =    29.8617   Anisotropy =    11.3050

     15  H    Isotropic =    29.7655   Anisotropy =    11.7358

     16  H    Isotropic =    28.5779   Anisotropy =     8.0280

     17  H    Isotropic =    27.5891   Anisotropy =     7.8790

     18  H    Isotropic =    27.1872   Anisotropy =     6.5375

     19  O    Isotropic =   310.7372   Anisotropy =   100.9170

     20  H    Isotropic =    30.0165   Anisotropy =    22.6933

     21  O    Isotropic =   312.4213   Anisotropy =    33.4699

     22  H    Isotropic =    28.5037   Anisotropy =    16.9305

     23  C    Isotropic =   135.9192   Anisotropy =    69.4467

     24  H    Isotropic =    27.5059   Anisotropy =     5.4487

     25  H    Isotropic =    27.1495   Anisotropy =     4.7458

     26  O    Isotropic =   316.6428   Anisotropy =    93.2133

     27  H    Isotropic =    30.2414   Anisotropy =    21.3415

 The electronic state is 1-A.
 Alpha  occ. eigenvalues --  -19.27046 -19.25636 -19.24879 -14.41010 -10.30691
 Alpha  occ. eigenvalues --  -10.29741 -10.29676 -10.27994 -10.27704 -10.26405
 Alpha  occ. eigenvalues --  -10.24366 -10.24285  -1.08137  -1.05789  -1.04555
 Alpha  occ. eigenvalues --   -0.95997  -0.82706  -0.78882  -0.75161  -0.71387
 Alpha  occ. eigenvalues --   -0.66754  -0.61152  -0.59662  -0.57018  -0.54983
 Alpha  occ. eigenvalues --   -0.54302  -0.52673  -0.51031  -0.48505  -0.47371
 Alpha  occ. eigenvalues --   -0.46438  -0.44738  -0.43223  -0.41516  -0.39670
 Alpha  occ. eigenvalues --   -0.39347  -0.38574  -0.36649  -0.36118  -0.35097
 Alpha  occ. eigenvalues --   -0.34911  -0.34486  -0.33905  -0.31204  -0.29701
 Alpha  occ. eigenvalues --   -0.28654  -0.22622
 Alpha virt. eigenvalues --   -0.00124   0.01270   0.01910   0.02020   0.03991
 Alpha virt. eigenvalues --    0.04067   0.04802   0.05107   0.05575   0.07199
 Alpha virt. eigenvalues --    0.08061   0.08579   0.08932   0.09171   0.09542

 Mulliken atomic charges:
              1
     1  C   -0.345997
     2  C   -0.075357
     3  N   -0.166732
     4  C   -0.101803
     5  C   -0.503774
     6  C   -0.150765
     7  C    0.145666
     8  C   -0.141964
     9  H    0.171282
    10  H    0.178996
    11  H    0.164871
    12  H    0.160749
    13  H    0.171953
    14  H    0.175137
    15  H    0.174948
    16  H    0.171398
    17  H    0.160141
    18  H    0.178945
    19  O   -0.622777
    20  H    0.408613
    21  O   -0.594049
    22  H    0.392932
    23  C   -0.099526
    24  H    0.167736
    25  H    0.166637
    26  O   -0.576857
    27  H    0.389595
 Sum of Mulliken atomic charges =   0.00000

 Dipole moment (field-independent basis, Debye):
    X=              0.4215    Y=              0.7567    Z=             -0.1200  Tot=              0.8744
 Quadrupole moment (field-independent basis, Debye-Ang):
   XX=            -71.7441   YY=            -62.4993   ZZ=            -75.4890
   XY=              5.7813   XZ=             -2.7482   YZ=             -5.3582

 Normal termination of Gaussian 09 at Fri May 17 13:13:20 2024.
