 Gaussian 09, Revision C.01,
 Gaussian 09:  AM64L-G09RevC.01 23-Sep-2011

 ------------------------------------------------
 # mpw1pw91/6-31+G** nmr scrf=(pcm,solvent=water)
 ------------------------------------------------

 99/9=1/99;
 -------
 comment
 -------
 Charge =  0 Multiplicity = 1

                         Standard orientation:
 ---------------------------------------------------------------------
 Center     Atomic      Atomic             Coordinates (Angstroms)
 Number     Number       Type             X           Y           Z
 ---------------------------------------------------------------------
      1          6           0       -2.094352    0.800912    0.412317
      2          6           0       -1.365323    0.177995   -0.815778
      3          7           0       -0.086732    0.933725   -1.010959
      4          6           0       -0.215023    2.156352   -0.188913
      5          6           0       -1.089903    1.798813    1.017507
      6          6           0        1.051329   -0.001100   -0.738797
      7          6           0        0.463174   -1.258980   -0.084552
      8          6           0       -0.938032   -1.306436   -0.697666
      9          1           0       -2.992772    1.326189    0.070691
     10          1           0       -2.417866    0.038031    1.125363
     11          1           0       -2.003267    0.287802   -1.699736
     12          1           0       -0.725456    2.920719   -0.791257
     13          1           0        0.761152    2.567700    0.072566
     14          1           0       -1.578371    2.675051    1.456995
     15          1           0       -0.487813    1.319455    1.795185
     16          1           0        1.449325   -0.331995   -1.708926
     17          1           0        1.049471   -2.151376   -0.338166
     18          1           0       -0.860639   -1.731068   -1.707524
     19          8           0       -1.767203   -2.136536    0.112579
     20          1           0       -2.691839   -1.990993   -0.148505
     21          8           0        0.394606   -1.122973    1.338105
     22          1           0       -0.373121   -1.655888    1.615354
     23          6           0        2.242791    0.592615    0.019135
     24          1           0        2.648323    1.446822   -0.530679
     25          1           0        1.953483    0.937916    1.017379
     26          8           0        3.310736   -0.357884    0.115614
     27          1           0        3.043441   -1.016321    0.778066
 ---------------------------------------------------------------------

 SCF Done:  E(RmPW1PW91) =  -594.187549103     A.U. after   13 cycles

      1  C    Isotropic =   169.3955   Anisotropy =    26.1804

      2  C    Isotropic =   125.7383   Anisotropy =    63.6419

      3  N    Isotropic =   194.1257   Anisotropy =    82.2038

      4  C    Isotropic =   144.5144   Anisotropy =    48.9823

      5  C    Isotropic =   168.7714   Anisotropy =    19.6108

      6  C    Isotropic =   128.5120   Anisotropy =    49.5287

      7  C    Isotropic =   122.5399   Anisotropy =    29.3675

      8  C    Isotropic =   120.4428   Anisotropy =    50.6979

      9  H    Isotropic =    30.1868   Anisotropy =    12.6321

     10  H    Isotropic =    29.5028   Anisotropy =     6.9581

     11  H    Isotropic =    27.9601   Anisotropy =     9.2909

     12  H    Isotropic =    28.9284   Anisotropy =    12.4457

     13  H    Isotropic =    28.7003   Anisotropy =     7.6496

     14  H    Isotropic =    30.1797   Anisotropy =    12.3702

     15  H    Isotropic =    29.7192   Anisotropy =     7.3505

     16  H    Isotropic =    28.1546   Anisotropy =     8.2975

     17  H    Isotropic =    27.5226   Anisotropy =     7.7825

     18  H    Isotropic =    27.0767   Anisotropy =     7.1623

     19  O    Isotropic =   302.1072   Anisotropy =    43.8430

     20  H    Isotropic =    29.9025   Anisotropy =    19.0998

     21  O    Isotropic =   317.6418   Anisotropy =    29.6712

     22  H    Isotropic =    28.7643   Anisotropy =    17.4521

     23  C    Isotropic =   135.4051   Anisotropy =    68.9378

     24  H    Isotropic =    27.8056   Anisotropy =     5.4820

     25  H    Isotropic =    27.4276   Anisotropy =     5.3521

     26  O    Isotropic =   315.6243   Anisotropy =    52.6012

     27  H    Isotropic =    30.3243   Anisotropy =    15.5912

 The electronic state is 1-A.
 Alpha  occ. eigenvalues --  -19.26886 -19.25803 -19.25338 -14.41277 -10.30789
 Alpha  occ. eigenvalues --  -10.30236 -10.29873 -10.28148 -10.27785 -10.26708
 Alpha  occ. eigenvalues --  -10.24217 -10.23802  -1.08166  -1.05979  -1.04890
 Alpha  occ. eigenvalues --   -0.95953  -0.82257  -0.78900  -0.75464  -0.71650
 Alpha  occ. eigenvalues --   -0.67350  -0.61856  -0.59674  -0.58154  -0.55224
 Alpha  occ. eigenvalues --   -0.52892  -0.52313  -0.50889  -0.49009  -0.48111
 Alpha  occ. eigenvalues --   -0.45500  -0.44425  -0.43275  -0.42453  -0.40563
 Alpha  occ. eigenvalues --   -0.39997  -0.37882  -0.37782  -0.36089  -0.35324
 Alpha  occ. eigenvalues --   -0.34806  -0.34498  -0.32680  -0.30539  -0.30152
 Alpha  occ. eigenvalues --   -0.29368  -0.22826
 Alpha virt. eigenvalues --   -0.00198   0.01621   0.01815   0.01998   0.03645
 Alpha virt. eigenvalues --    0.04075   0.04736   0.04840   0.05278   0.07264
 Alpha virt. eigenvalues --    0.07879   0.08573   0.08852   0.08942   0.09674

 Mulliken atomic charges:
              1
     1  C   -0.500742
     2  C    0.094008
     3  N   -0.100378
     4  C   -0.235659
     5  C   -0.260625
     6  C   -0.247968
     7  C    0.175182
     8  C   -0.203964
     9  H    0.173339
    10  H    0.178848
    11  H    0.169114
    12  H    0.162976
    13  H    0.160200
    14  H    0.165720
    15  H    0.181939
    16  H    0.175899
    17  H    0.167745
    18  H    0.176361
    19  O   -0.599455
    20  H    0.394005
    21  O   -0.599431
    22  H    0.394547
    23  C   -0.208411
    24  H    0.178433
    25  H    0.175221
    26  O   -0.551232
    27  H    0.384328
 Sum of Mulliken atomic charges =   0.00000

 Dipole moment (field-independent basis, Debye):
    X=             -4.4371    Y=             -0.1134    Z=             -0.0105  Tot=              4.4386
 Quadrupole moment (field-independent basis, Debye-Ang):
   XX=            -75.8212   YY=            -71.2850   ZZ=            -75.1890
   XY=              1.8329   XZ=              3.0096   YZ=              2.8782

 Normal termination of Gaussian 09 at Fri May 17 13:01:55 2024.
