 Gaussian 09, Revision C.01,
 Gaussian 09:  AM64L-G09RevC.01 23-Sep-2011

 ------------------------------------------------
 # mpw1pw91/6-31+G** nmr scrf=(pcm,solvent=water)
 ------------------------------------------------

 99/9=1/99;
 -------
 comment
 -------
 Charge =  0 Multiplicity = 1

                         Standard orientation:
 ---------------------------------------------------------------------
 Center     Atomic      Atomic             Coordinates (Angstroms)
 Number     Number       Type             X           Y           Z
 ---------------------------------------------------------------------
      1          6           0       -1.831573    1.418608    0.042323
      2          6           0       -1.056360    0.478617   -0.901700
      3          7           0        0.400638    0.728723   -0.629008
      4          6           0        0.481862    1.640786    0.537374
      5          6           0       -0.787075    2.480896    0.414036
      6          6           0        1.043094   -0.603314   -0.496565
      7          6           0       -0.037899   -1.557440    0.024905
      8          6           0       -1.289611   -1.050051   -0.723046
      9          1           0       -2.727983    1.831727   -0.429722
     10          1           0       -2.146602    0.884221    0.943287
     11          1           0       -1.277631    0.740277   -1.942657
     12          1           0        1.398706    2.241513    0.494452
     13          1           0        0.473355    1.113644    1.500825
     14          1           0       -0.681045    3.219706   -0.389650
     15          1           0       -1.027132    3.016007    1.338195
     16          1           0        1.278812   -0.955569   -1.512419
     17          1           0        0.190167   -2.604148   -0.221662
     18          1           0       -1.340759   -1.533537   -1.704033
     19          8           0       -2.491760   -1.319664    0.005713
     20          1           0       -2.712040   -2.255636   -0.139327
     21          8           0       -0.232057   -1.424302    1.435906
     22          1           0       -1.199289   -1.507162    1.557644
     23          6           0        2.357511   -0.637873    0.277620
     24          1           0        2.233002   -0.275061    1.303685
     25          1           0        2.688612   -1.679753    0.335652
     26          8           0        3.415195    0.071609   -0.379410
     27          1           0        3.234635    1.020199   -0.278554
 ---------------------------------------------------------------------

 SCF Done:  E(RmPW1PW91) =  -594.191331547     A.U. after   13 cycles

      1  C    Isotropic =   168.3398   Anisotropy =    22.0577

      2  C    Isotropic =   128.5295   Anisotropy =    57.4833

      3  N    Isotropic =   193.8642   Anisotropy =    83.4678

      4  C    Isotropic =   145.5561   Anisotropy =    43.9211

      5  C    Isotropic =   166.6978   Anisotropy =    20.8615

      6  C    Isotropic =   129.3058   Anisotropy =    23.3242

      7  C    Isotropic =   117.9041   Anisotropy =    22.5106

      8  C    Isotropic =   120.1581   Anisotropy =    48.9035

      9  H    Isotropic =    29.9111   Anisotropy =    11.2506

     10  H    Isotropic =    29.5380   Anisotropy =     6.4752

     11  H    Isotropic =    27.6965   Anisotropy =     9.0989

     12  H    Isotropic =    28.8232   Anisotropy =     9.3698

     13  H    Isotropic =    28.0616   Anisotropy =     6.6603

     14  H    Isotropic =    29.7314   Anisotropy =    11.1719

     15  H    Isotropic =    29.6527   Anisotropy =    11.7238

     16  H    Isotropic =    28.4893   Anisotropy =     8.4390

     17  H    Isotropic =    27.7805   Anisotropy =     8.4503

     18  H    Isotropic =    27.2184   Anisotropy =     6.6622

     19  O    Isotropic =   310.9536   Anisotropy =   101.4948

     20  H    Isotropic =    30.0304   Anisotropy =    23.0575

     21  O    Isotropic =   310.1179   Anisotropy =    29.4647

     22  H    Isotropic =    28.5330   Anisotropy =    16.8625

     23  C    Isotropic =   132.9998   Anisotropy =    60.9501

     24  H    Isotropic =    27.1239   Anisotropy =     4.2146

     25  H    Isotropic =    27.6640   Anisotropy =     6.2370

     26  O    Isotropic =   311.0996   Anisotropy =    35.3499

     27  H    Isotropic =    30.1455   Anisotropy =    15.4793

 The electronic state is 1-A.
 Alpha  occ. eigenvalues --  -19.27168 -19.25657 -19.25011 -14.41039 -10.30828
 Alpha  occ. eigenvalues --  -10.30072 -10.29840 -10.28000 -10.27825 -10.26661
 Alpha  occ. eigenvalues --  -10.24473 -10.24372  -1.08287  -1.05744  -1.04699
 Alpha  occ. eigenvalues --   -0.96020  -0.82846  -0.78821  -0.75526  -0.71511
 Alpha  occ. eigenvalues --   -0.66885  -0.61368  -0.60219  -0.57395  -0.55146
 Alpha  occ. eigenvalues --   -0.53530  -0.52960  -0.51145  -0.49440  -0.46780
 Alpha  occ. eigenvalues --   -0.46340  -0.44015  -0.43509  -0.42659  -0.39771
 Alpha  occ. eigenvalues --   -0.39118  -0.38340  -0.36831  -0.36689  -0.35277
 Alpha  occ. eigenvalues --   -0.34863  -0.34347  -0.34059  -0.32122  -0.29324
 Alpha  occ. eigenvalues --   -0.28889  -0.22792
 Alpha virt. eigenvalues --   -0.00044   0.01225   0.01881   0.02304   0.03431
 Alpha virt. eigenvalues --    0.04465   0.04651   0.05293   0.05502   0.07662
 Alpha virt. eigenvalues --    0.07674   0.08413   0.08788   0.08873   0.09574

 Mulliken atomic charges:
              1
     1  C   -0.364385
     2  C   -0.113611
     3  N   -0.222982
     4  C   -0.129086
     5  C   -0.487551
     6  C    0.240533
     7  C    0.031069
     8  C   -0.106776
     9  H    0.171780
    10  H    0.181390
    11  H    0.165748
    12  H    0.150841
    13  H    0.179330
    14  H    0.176183
    15  H    0.175342
    16  H    0.171997
    17  H    0.159874
    18  H    0.180131
    19  O   -0.626688
    20  H    0.410307
    21  O   -0.584396
    22  H    0.394651
    23  C   -0.325633
    24  H    0.166404
    25  H    0.172274
    26  O   -0.540755
    27  H    0.374007
 Sum of Mulliken atomic charges =   0.00000

 Dipole moment (field-independent basis, Debye):
    X=             -3.5303    Y=             -1.2750    Z=             -0.4585  Tot=              3.7814
 Quadrupole moment (field-independent basis, Debye-Ang):
   XX=            -82.6073   YY=            -61.9925   ZZ=            -75.7795
   XY=              7.3241   XZ=              4.5885   YZ=              5.5965

 Normal termination of Gaussian 09 at Fri May 17 12:50:13 2024.
