 Gaussian 09, Revision C.01,
 Gaussian 09:  AM64L-G09RevC.01 23-Sep-2011

 ------------------------------------------------
 # mpw1pw91/6-31+G** nmr scrf=(pcm,solvent=water)
 ------------------------------------------------

 99/9=1/99;
 -------
 comment
 -------
 Charge =  0 Multiplicity = 1

                         Standard orientation:
 ---------------------------------------------------------------------
 Center     Atomic      Atomic             Coordinates (Angstroms)
 Number     Number       Type             X           Y           Z
 ---------------------------------------------------------------------
      1          6           0       -2.130463    0.760808    0.407273
      2          6           0       -1.386608    0.154009   -0.818247
      3          7           0       -0.123938    0.938045   -1.009802
      4          6           0       -0.272407    2.150237   -0.175465
      5          6           0       -1.141969    1.765219    1.026365
      6          6           0        1.033255    0.025150   -0.750519
      7          6           0        0.474520   -1.252458   -0.102498
      8          6           0       -0.935296   -1.327462   -0.697555
      9          1           0       -3.031665    1.279406    0.062259
     10          1           0       -2.455844   -0.009376    1.111924
     11          1           0       -2.024359    0.251971   -1.703540
     12          1           0       -0.794747    2.912569   -0.770211
     13          1           0        0.696909    2.574716    0.090791
     14          1           0       -1.642749    2.628536    1.477554
     15          1           0       -0.532140    1.285257    1.797981
     16          1           0        1.437633   -0.287515   -1.724813
     17          1           0        1.076839   -2.130804   -0.353928
     18          1           0       -0.861778   -1.750800   -1.704414
     19          8           0       -1.807026   -2.177520    0.035650
     20          1           0       -1.531778   -2.087627    0.966709
     21          8           0        0.320287   -1.171885    1.321689
     22          1           0        1.189775   -1.343498    1.719299
     23          6           0        2.202198    0.633959    0.016186
     24          1           0        2.580946    1.522040   -0.506771
     25          1           0        1.898064    0.936183    1.025484
     26          8           0        3.217507   -0.376381    0.087301
     27          1           0        3.956933    0.002142    0.589933
 ---------------------------------------------------------------------

 SCF Done:  E(RmPW1PW91) =  -594.188507143     A.U. after   13 cycles

      1  C    Isotropic =   168.9673   Anisotropy =    26.3814

      2  C    Isotropic =   126.1297   Anisotropy =    64.1660

      3  N    Isotropic =   197.3591   Anisotropy =    79.5722

      4  C    Isotropic =   144.2355   Anisotropy =    49.6136

      5  C    Isotropic =   168.8485   Anisotropy =    19.0635

      6  C    Isotropic =   130.1451   Anisotropy =    46.2705

      7  C    Isotropic =   121.2330   Anisotropy =    27.7670

      8  C    Isotropic =   121.3206   Anisotropy =    53.4645

      9  H    Isotropic =    30.1094   Anisotropy =    12.6573

     10  H    Isotropic =    29.6377   Anisotropy =     7.0470

     11  H    Isotropic =    27.9428   Anisotropy =     9.4510

     12  H    Isotropic =    28.9191   Anisotropy =    12.4384

     13  H    Isotropic =    28.8385   Anisotropy =     7.7042

     14  H    Isotropic =    30.2100   Anisotropy =    12.3594

     15  H    Isotropic =    29.8463   Anisotropy =     7.2737

     16  H    Isotropic =    28.2196   Anisotropy =     8.4408

     17  H    Isotropic =    27.5403   Anisotropy =     7.5260

     18  H    Isotropic =    27.1845   Anisotropy =     7.0996

     19  O    Isotropic =   310.7747   Anisotropy =    34.5465

     20  H    Isotropic =    28.4870   Anisotropy =    14.3678

     21  O    Isotropic =   314.2028   Anisotropy =    49.8148

     22  H    Isotropic =    29.6219   Anisotropy =    20.5112

     23  C    Isotropic =   135.9291   Anisotropy =    67.1260

     24  H    Isotropic =    27.5683   Anisotropy =     5.5703

     25  H    Isotropic =    27.6489   Anisotropy =     5.3431

     26  O    Isotropic =   316.9878   Anisotropy =    82.2897

     27  H    Isotropic =    30.1819   Anisotropy =    21.5163

 The electronic state is 1-A.
 Alpha  occ. eigenvalues --  -19.26365 -19.26079 -19.25456 -14.41161 -10.30325
 Alpha  occ. eigenvalues --  -10.30240 -10.30145 -10.28215 -10.27332 -10.26674
 Alpha  occ. eigenvalues --  -10.24039 -10.23736  -1.07908  -1.06159  -1.04831
 Alpha  occ. eigenvalues --   -0.95859  -0.82234  -0.78699  -0.75595  -0.71527
 Alpha  occ. eigenvalues --   -0.66901  -0.62035  -0.59071  -0.58080  -0.55473
 Alpha  occ. eigenvalues --   -0.53301  -0.51947  -0.51086  -0.48290  -0.47958
 Alpha  occ. eigenvalues --   -0.45438  -0.44441  -0.43046  -0.42823  -0.40636
 Alpha  occ. eigenvalues --   -0.40107  -0.38155  -0.36705  -0.36253  -0.35557
 Alpha  occ. eigenvalues --   -0.34861  -0.33906  -0.32671  -0.30885  -0.30104
 Alpha  occ. eigenvalues --   -0.29256  -0.22606
 Alpha virt. eigenvalues --   -0.00247   0.01387   0.01868   0.02191   0.03734
 Alpha virt. eigenvalues --    0.04386   0.04666   0.04892   0.05092   0.07478
 Alpha virt. eigenvalues --    0.07825   0.08275   0.08654   0.08970   0.09842

 Mulliken atomic charges:
              1
     1  C   -0.479329
     2  C    0.202301
     3  N   -0.095482
     4  C   -0.247489
     5  C   -0.259533
     6  C   -0.397696
     7  C    0.283827
     8  C   -0.325162
     9  H    0.170656
    10  H    0.163705
    11  H    0.161549
    12  H    0.162600
    13  H    0.158125
    14  H    0.165123
    15  H    0.179726
    16  H    0.174957
    17  H    0.175907
    18  H    0.179167
    19  O   -0.534847
    20  H    0.383889
    21  O   -0.652993
    22  H    0.403661
    23  C   -0.128326
    24  H    0.175426
    25  H    0.175401
    26  O   -0.589472
    27  H    0.394310
 Sum of Mulliken atomic charges =   0.00000

 Dipole moment (field-independent basis, Debye):
    X=              3.6474    Y=              2.5100    Z=              2.3588  Tot=              5.0167
 Quadrupole moment (field-independent basis, Debye-Ang):
   XX=            -68.9511   YY=            -76.0996   ZZ=            -72.2994
   XY=             -2.1179   XZ=              5.6636   YZ=              0.9031

 Normal termination of Gaussian 09 at Fri May 17 12:56:15 2024.
