 Gaussian 09, Revision C.01,
 Gaussian 09:  EM64L-G09RevC.01 23-Sep-2011

 -----------------------------------------------------------------
 # mPW1PW91/6-31g** scrf=(pcm,solvent=chloroform,smd,dovacuum) nmr
 -----------------------------------------------------------------

 99/9=1/99;
 -------
 comment
 -------
 Charge =  0 Multiplicity = 1

                         Standard orientation:
 ---------------------------------------------------------------------
 Center     Atomic      Atomic             Coordinates (Angstroms)
 Number     Number       Type             X           Y           Z
 ---------------------------------------------------------------------
      1          1           0        2.734233   -2.893875   -0.395055
      2          6           0        2.969933   -1.837315   -0.312172
      3          6           0        3.620166    0.898702   -0.057972
      4          6           0        1.998104   -0.903447    0.024695
      5          6           0        4.276765   -1.395268   -0.526877
      6          6           0        4.599925   -0.037162   -0.398933
      7          6           0        2.327116    0.451886    0.152140
      8          1           0        5.053885   -2.109891   -0.788188
      9          1           0        5.622441    0.293168   -0.566089
     10          1           0        3.884489    1.946771    0.034307
     11          6           0        0.544697   -1.140656    0.348498
     12          6           0        0.002114    0.323444    0.401754
     13          1           0       -0.566709    0.490467    1.326129
     14          7           0        1.179186    1.204713    0.445988
     15          6           0       -0.802754    0.819867   -0.807550
     16          1           0       -0.093881    1.055254   -1.619518
     17          6           0       -1.721726   -0.263067   -1.389466
     18          1           0       -2.218194    0.123343   -2.288888
     19          6           0       -0.808203   -1.423906   -1.813287
     20          1           0        0.016587   -1.066690   -2.442626
     21          1           0       -1.360874   -2.146922   -2.427378
     22          6           0       -0.262948   -2.094620   -0.553223
     23          1           0        0.357566   -2.946416   -0.857616
     24          7           0       -1.339450   -2.639980    0.315916
     25          6           0       -1.032627   -2.303450    1.713788
     26          1           0       -1.166920   -3.175208    2.362019
     27          1           0       -1.672751   -1.501446    2.101075
     28          6           0        0.411074   -1.833476    1.710443
     29          1           0        1.080452   -2.701132    1.782297
     30          1           0        0.632377   -1.175903    2.558395
     31          6           0        1.053970    2.579501    0.362277
     32          8           0        1.988047    3.378230    0.326696
     33          6           0       -1.410207    2.185394   -0.415887
     34          1           0       -1.737216    2.710543   -1.322767
     35          6           0       -0.385729    3.082138    0.325401
     36          1           0       -0.689762    3.260443    1.364538
     37          1           0       -0.374012    4.061854   -0.169060
     38          8           0       -2.534624    2.086779    0.469483
     39          6           0       -2.772493   -0.771163   -0.421809
     40          6           0       -3.675582    0.053171    0.137083
     41          6           0       -3.704630    1.523270   -0.107156
     42          1           0       -3.813354    1.777161   -1.167551
     43          1           0       -4.565490    1.951244    0.417184
     44          1           0       -4.402622   -0.332566    0.847121
     45          6           0       -2.695680   -2.239947   -0.074353
     46          1           0       -3.410259   -2.509940    0.713812
     47          1           0       -3.003241   -2.826841   -0.949260
 ---------------------------------------------------------------------

 SCF Done:  E(RmPW1PW91) =  -1073.24668934     A.U. after   13 cycles

      1  H    Isotropic =    24.0418   Anisotropy =     9.8868

      2  C    Isotropic =    76.3007   Anisotropy =   165.8687

      3  C    Isotropic =    84.8137   Anisotropy =   151.8719

      4  C    Isotropic =    64.7456   Anisotropy =   138.4465

      5  C    Isotropic =    75.1139   Anisotropy =   165.4699

      6  C    Isotropic =    70.3164   Anisotropy =   170.3976

      7  C    Isotropic =    58.7342   Anisotropy =   115.3952

      8  H    Isotropic =    24.3150   Anisotropy =     4.5060

      9  H    Isotropic =    24.0748   Anisotropy =     3.9085

     10  H    Isotropic =    23.4097   Anisotropy =     8.6159

     11  C    Isotropic =   142.5028   Anisotropy =    24.8492

     12  C    Isotropic =   134.7495   Anisotropy =    33.2582

     13  H    Isotropic =    27.6004   Anisotropy =     3.1841

     14  N    Isotropic =   104.0706   Anisotropy =    77.4416

     15  C    Isotropic =   147.9287   Anisotropy =    18.8804

     16  H    Isotropic =    30.4112   Anisotropy =     3.7014

     17  C    Isotropic =   162.8999   Anisotropy =    10.3253

     18  H    Isotropic =    28.5604   Anisotropy =     9.3860

     19  C    Isotropic =   167.7794   Anisotropy =    12.7143

     20  H    Isotropic =    30.2245   Anisotropy =     7.1446

     21  H    Isotropic =    29.3992   Anisotropy =    11.3717

     22  C    Isotropic =   136.0711   Anisotropy =    37.9882

     23  H    Isotropic =    27.7051   Anisotropy =    10.1498

     24  N    Isotropic =   221.5805   Anisotropy =    58.1715

     25  C    Isotropic =   145.9843   Anisotropy =    55.2929

     26  H    Isotropic =    28.6494   Anisotropy =    11.9050

     27  H    Isotropic =    28.8350   Anisotropy =     6.3401

     28  C    Isotropic =   151.6063   Anisotropy =    43.1846

     29  H    Isotropic =    29.6622   Anisotropy =     9.8606

     30  H    Isotropic =    29.7609   Anisotropy =     7.5231

     31  C    Isotropic =    31.5510   Anisotropy =   103.1008

     32  O    Isotropic =   -56.1378   Anisotropy =   588.9676

     33  C    Isotropic =   116.6935   Anisotropy =    52.1736

     34  H    Isotropic =    27.4060   Anisotropy =     6.6774

     35  C    Isotropic =   152.7296   Anisotropy =    41.4355

     36  H    Isotropic =    28.9779   Anisotropy =     5.7629

     37  H    Isotropic =    28.5362   Anisotropy =     8.6019

     38  O    Isotropic =   285.2678   Anisotropy =    84.8512

     39  C    Isotropic =    55.0947   Anisotropy =   155.6349

     40  C    Isotropic =    68.3613   Anisotropy =   128.7931

     41  C    Isotropic =   133.4082   Anisotropy =    67.9021

     42  H    Isotropic =    27.7738   Anisotropy =     7.4094

     43  H    Isotropic =    27.7110   Anisotropy =    10.3890

     44  H    Isotropic =    25.4182   Anisotropy =     5.6031

     45  C    Isotropic =   144.0660   Anisotropy =    28.0798

     46  H    Isotropic =    28.9251   Anisotropy =     8.8856

     47  H    Isotropic =    28.0927   Anisotropy =    10.1128

 The electronic state is 1-A.
 Alpha  occ. eigenvalues --  -19.23734 -19.20892 -14.45299 -14.39728 -10.35238
 Alpha  occ. eigenvalues --  -10.30105 -10.28809 -10.28799 -10.28325 -10.27292
 Alpha  occ. eigenvalues --  -10.26724 -10.26396 -10.25626 -10.25432 -10.25414
 Alpha  occ. eigenvalues --  -10.25331 -10.24966 -10.24894 -10.24828 -10.24814
 Alpha  occ. eigenvalues --  -10.24479 -10.24450 -10.24120 -10.23838 -10.23343
 Alpha  occ. eigenvalues --   -1.06516  -1.05584  -0.99419  -0.95862  -0.87922
 Alpha  occ. eigenvalues --   -0.85405  -0.84191  -0.82306  -0.78660  -0.76865
 Alpha  occ. eigenvalues --   -0.76372  -0.75180  -0.73131  -0.71595  -0.67607
 Alpha  occ. eigenvalues --   -0.66131  -0.64400  -0.64107  -0.61698  -0.59517
 Alpha  occ. eigenvalues --   -0.58621  -0.56666  -0.56459  -0.52288  -0.52088
 Alpha  occ. eigenvalues --   -0.51589  -0.50374  -0.49400  -0.49268  -0.48185
 Alpha  occ. eigenvalues --   -0.47410  -0.47126  -0.46039  -0.45632  -0.45416
 Alpha  occ. eigenvalues --   -0.44631  -0.43957  -0.42079  -0.41839  -0.41186
 Alpha  occ. eigenvalues --   -0.40350  -0.40012  -0.39523  -0.39099  -0.38188
 Alpha  occ. eigenvalues --   -0.37651  -0.37333  -0.36989  -0.36529  -0.35991
 Alpha  occ. eigenvalues --   -0.35594  -0.34329  -0.33526  -0.33232  -0.32997
 Alpha  occ. eigenvalues --   -0.32096  -0.31427  -0.30244  -0.26822  -0.26255
 Alpha  occ. eigenvalues --   -0.25638  -0.24265  -0.21836  -0.20976
 Alpha virt. eigenvalues --   -0.00511   0.00191   0.01370   0.04926   0.09643
 Alpha virt. eigenvalues --    0.10613   0.11531   0.12179   0.12346   0.13070
 Alpha virt. eigenvalues --    0.13099   0.13728   0.14595   0.15192   0.15922

 Mulliken atomic charges:
              1
     1  H    0.154810
     2  C   -0.184672
     3  C   -0.153628
     4  C    0.031737
     5  C   -0.168073
     6  C   -0.167370
     7  C    0.322221
     8  H    0.146626
     9  H    0.153083
    10  H    0.167054
    11  C   -0.097576
    12  C    0.026122
    13  H    0.170580
    14  N   -0.616562
    15  C   -0.105296
    16  H    0.153542
    17  C   -0.191441
    18  H    0.156777
    19  C   -0.276246
    20  H    0.149660
    21  H    0.150774
    22  C    0.066640
    23  H    0.141746
    24  N   -0.493236
    25  C   -0.076481
    26  H    0.137705
    27  H    0.127740
    28  C   -0.264248
    29  H    0.150765
    30  H    0.152181
    31  C    0.592107
    32  O   -0.558665
    33  C    0.136314
    34  H    0.142524
    35  C   -0.359927
    36  H    0.197911
    37  H    0.179978
    38  O   -0.524244
    39  C    0.111197
    40  C   -0.196739
    41  C   -0.045018
    42  H    0.139286
    43  H    0.145291
    44  H    0.136626
    45  C   -0.164424
    46  H    0.152911
    47  H    0.149936
 Sum of Mulliken atomic charges =   0.00000

 Dipole moment (field-independent basis, Debye):
    X=             -3.8479    Y=             -2.9514    Z=             -1.8478  Tot=              5.1895
 Quadrupole moment (field-independent basis, Debye-Ang):
   XX=           -139.9426   YY=           -154.3353   ZZ=           -139.4254
   XY=            -12.6308   XZ=              0.1432   YZ=             -3.7202

 Normal termination of Gaussian 09 at Sat Oct 16 13:21:14 2021.
