 Gaussian 09, Revision C.01,
 Gaussian 09:  EM64L-G09RevC.01 23-Sep-2011

 -----------------------------------------------------------------
 # mPW1PW91/6-31g** scrf=(pcm,solvent=chloroform,smd,dovacuum) nmr
 -----------------------------------------------------------------

 99/9=1/99;
 -------
 comment
 -------
 Charge =  0 Multiplicity = 1

                         Standard orientation:
 ---------------------------------------------------------------------
 Center     Atomic      Atomic             Coordinates (Angstroms)
 Number     Number       Type             X           Y           Z
 ---------------------------------------------------------------------
      1          6           0        4.001215   -1.153997   -0.863840
      2          1           0        4.580324   -1.937031   -1.337791
      3          6           0        2.988409   -1.411176   -0.025823
      4          1           0        2.756681   -2.452750    0.190426
      5          6           0        2.140306   -0.360843    0.690577
      6          6           0        4.394879    0.233655   -1.169007
      7          6           0        3.618203    1.312756   -0.525678
      8          6           0        2.598568    1.049472    0.310796
      9          6           0        1.779331    2.163713    0.897896
     10          1           0        2.175767    3.144516    0.607900
     11          1           0        1.804646    2.135760    1.992076
     12          6           0        0.607873   -0.533419    0.433401
     13          6           0       -0.311125    0.679448    0.712267
     14          1           0       -0.568812    0.674511    1.778747
     15          6           0        0.356255    2.033478    0.386260
     16          1           0        0.367563    2.191775   -0.701264
     17          1           0       -0.244908    2.847449    0.809572
     18          1           0        3.917180    2.320151   -0.792195
     19          6           0        2.430537   -0.560052    2.204507
     20          1           0        2.285467   -1.603446    2.511714
     21          1           0        1.764221    0.041649    2.832774
     22          1           0        3.463770   -0.290672    2.457428
     23          8           0        0.147106   -1.744144    1.094351
     24          8           0        5.321729    0.481877   -1.928994
     25          6           0       -1.590687    0.577274   -0.148255
     26          1           0       -1.270343    0.704670   -1.197751
     27          6           0       -2.314140   -0.779782   -0.053521
     28          6           0       -1.441436   -1.825608   -0.748824
     29          1           0       -1.474077   -1.680893   -1.836423
     30          1           0       -1.827311   -2.836120   -0.568343
     31          6           0       -0.001662   -1.751520   -0.313868
     32          1           0        0.632149   -2.403928   -0.898208
     33          6           0       -2.699440    1.605328    0.077662
     34          1           0       -2.405063    2.612570   -0.234018
     35          1           0       -2.987440    1.653398    1.134019
     36          6           0       -3.839572    1.075164   -0.811023
     37          1           0       -3.708561    1.437184   -1.837448
     38          6           0       -3.582181   -0.427429   -0.815578
     39          8           0       -4.315528   -1.248084   -1.352140
     40          6           0       -2.765631   -1.202434    1.355129
     41          1           0       -3.209172   -2.204886    1.328544
     42          1           0       -3.537196   -0.536829    1.758309
     43          1           0       -1.953782   -1.220558    2.084534
     44          6           0       -5.214568    1.430656   -0.283004
     45          1           0       -5.995263    1.034147   -0.940768
     46          1           0       -5.339263    2.516298   -0.221159
     47          1           0       -5.383821    1.007738    0.713152
 ---------------------------------------------------------------------

 SCF Done:  E(RmPW1PW91) =  -1002.03646525     A.U. after   13 cycles

      1  C    Isotropic =    70.4734   Anisotropy =   126.1982

      2  H    Isotropic =    25.2727   Anisotropy =     5.4116

      3  C    Isotropic =    44.7568   Anisotropy =   176.0892

      4  H    Isotropic =    24.6236   Anisotropy =     9.9971

      5  C    Isotropic =   147.7604   Anisotropy =    37.8511

      6  C    Isotropic =    16.8961   Anisotropy =   158.5084

      7  C    Isotropic =    73.1648   Anisotropy =   102.5142

      8  C    Isotropic =    31.2684   Anisotropy =   196.1897

      9  C    Isotropic =   162.7758   Anisotropy =    15.0661

     10  H    Isotropic =    29.2619   Anisotropy =    10.1530

     11  H    Isotropic =    28.9452   Anisotropy =     6.5292

     12  C    Isotropic =   127.0357   Anisotropy =    82.0784

     13  C    Isotropic =   158.4169   Anisotropy =    16.8503

     14  H    Isotropic =    29.1462   Anisotropy =     3.3463

     15  C    Isotropic =   162.3380   Anisotropy =    21.5728

     16  H    Isotropic =    30.2742   Anisotropy =     6.1255

     17  H    Isotropic =    29.3391   Anisotropy =     8.2473

     18  H    Isotropic =    25.2850   Anisotropy =     6.8634

     19  C    Isotropic =   172.0243   Anisotropy =    33.2678

     20  H    Isotropic =    29.8492   Anisotropy =     8.9635

     21  H    Isotropic =    29.5915   Anisotropy =     6.4681

     22  H    Isotropic =    30.9771   Anisotropy =    11.4780

     23  O    Isotropic =   270.1273   Anisotropy =   122.4897

     24  O    Isotropic =  -198.6802   Anisotropy =   846.9153

     25  C    Isotropic =   145.0972   Anisotropy =    19.1892

     26  H    Isotropic =    30.3273   Anisotropy =     2.4086

     27  C    Isotropic =   148.5599   Anisotropy =    21.8174

     28  C    Isotropic =   159.4520   Anisotropy =    22.9474

     29  H    Isotropic =    30.1348   Anisotropy =     8.0946

     30  H    Isotropic =    29.5277   Anisotropy =     9.2652

     31  C    Isotropic =   130.3891   Anisotropy =    58.0103

     32  H    Isotropic =    28.2313   Anisotropy =    11.3780

     33  C    Isotropic =   162.6264   Anisotropy =    35.3636

     34  H    Isotropic =    29.5701   Anisotropy =     6.8104

     35  H    Isotropic =    30.3541   Anisotropy =     6.1249

     36  C    Isotropic =   152.8679   Anisotropy =    21.3138

     37  H    Isotropic =    29.5491   Anisotropy =     7.6664

     38  C    Isotropic =   -27.5132   Anisotropy =   167.0667

     39  O    Isotropic =  -230.3335   Anisotropy =   932.8350

     40  C    Isotropic =   177.9656   Anisotropy =    21.7020

     41  H    Isotropic =    30.9390   Anisotropy =    10.8387

     42  H    Isotropic =    30.7798   Anisotropy =     9.5408

     43  H    Isotropic =    29.8417   Anisotropy =     5.9795

     44  C    Isotropic =   177.1273   Anisotropy =    27.6771

     45  H    Isotropic =    30.2080   Anisotropy =    11.3018

     46  H    Isotropic =    30.5690   Anisotropy =    10.4363

     47  H    Isotropic =    30.8539   Anisotropy =     7.5243

 The electronic state is 1-A.
 Alpha  occ. eigenvalues --  -19.25150 -19.22578 -19.21126 -10.32579 -10.32286
 Alpha  occ. eigenvalues --  -10.32186 -10.30625 -10.29049 -10.27695 -10.26934
 Alpha  occ. eigenvalues --  -10.25815 -10.25716 -10.25056 -10.24924 -10.24921
 Alpha  occ. eigenvalues --  -10.24600 -10.24511 -10.24466 -10.24394 -10.24355
 Alpha  occ. eigenvalues --  -10.23775 -10.23332 -10.23270  -1.10253  -1.05919
 Alpha  occ. eigenvalues --   -1.05147  -0.89245  -0.88425  -0.82984  -0.81244
 Alpha  occ. eigenvalues --   -0.79642  -0.78009  -0.75152  -0.73992  -0.71985
 Alpha  occ. eigenvalues --   -0.68864  -0.67109  -0.65385  -0.64206  -0.62367
 Alpha  occ. eigenvalues --   -0.61315  -0.60115  -0.57109  -0.55826  -0.53726
 Alpha  occ. eigenvalues --   -0.50890  -0.50587  -0.50046  -0.48586  -0.48345
 Alpha  occ. eigenvalues --   -0.46602  -0.46233  -0.45984  -0.44915  -0.44352
 Alpha  occ. eigenvalues --   -0.43829  -0.42599  -0.42323  -0.42166  -0.41881
 Alpha  occ. eigenvalues --   -0.41068  -0.40834  -0.40328  -0.39607  -0.39324
 Alpha  occ. eigenvalues --   -0.38575  -0.38150  -0.37685  -0.37550  -0.36997
 Alpha  occ. eigenvalues --   -0.36133  -0.35237  -0.34214  -0.33979  -0.33551
 Alpha  occ. eigenvalues --   -0.32950  -0.32002  -0.31579  -0.28935  -0.28334
 Alpha  occ. eigenvalues --   -0.27448  -0.26288  -0.24986  -0.24198
 Alpha virt. eigenvalues --   -0.04986  -0.00877   0.00804   0.07449   0.09985
 Alpha virt. eigenvalues --    0.10946   0.11229   0.12079   0.12430   0.13344
 Alpha virt. eigenvalues --    0.13792   0.14296   0.14787   0.15425   0.16255

 Mulliken atomic charges:
              1
     1  C   -0.177383
     2  H    0.158426
     3  C   -0.091112
     4  H    0.169314
     5  C   -0.125535
     6  C    0.411568
     7  C   -0.228400
     8  C    0.116351
     9  C   -0.307030
    10  H    0.154549
    11  H    0.159825
    12  C    0.214555
    13  C   -0.105763
    14  H    0.153305
    15  C   -0.259795
    16  H    0.143267
    17  H    0.150866
    18  H    0.150787
    19  C   -0.385421
    20  H    0.161502
    21  H    0.154406
    22  H    0.157383
    23  O   -0.490798
    24  O   -0.554402
    25  C   -0.143155
    26  H    0.144283
    27  C   -0.085414
    28  C   -0.242258
    29  H    0.149062
    30  H    0.156917
    31  C    0.097100
    32  H    0.146012
    33  C   -0.257178
    34  H    0.141998
    35  H    0.142125
    36  C   -0.190726
    37  H    0.180557
    38  C    0.468540
    39  O   -0.525698
    40  C   -0.397126
    41  H    0.149784
    42  H    0.140777
    43  H    0.160958
    44  C   -0.406001
    45  H    0.147040
    46  H    0.145897
    47  H    0.146040
 Sum of Mulliken atomic charges =   0.00000

 Dipole moment (field-independent basis, Debye):
    X=             -2.8827    Y=              2.5287    Z=              3.8778  Tot=              5.4536
 Quadrupole moment (field-independent basis, Debye-Ang):
   XX=           -179.4884   YY=           -127.6989   ZZ=           -139.5272
   XY=            -16.5758   XZ=              9.5791   YZ=              2.5541

 Normal termination of Gaussian 09 at Sat Oct 16 10:45:20 2021.
