 Gaussian 09, Revision C.01,
 Gaussian 09:  EM64L-G09RevC.01 23-Sep-2011

 -----------------------------------------------------------------
 # mPW1PW91/6-31g** scrf=(pcm,solvent=chloroform,smd,dovacuum) nmr
 -----------------------------------------------------------------

 99/9=1/99;
 -------
 comment
 -------
 Charge =  0 Multiplicity = 1

                         Standard orientation:
 ---------------------------------------------------------------------
 Center     Atomic      Atomic             Coordinates (Angstroms)
 Number     Number       Type             X           Y           Z
 ---------------------------------------------------------------------
      1          6           0       -1.139972    0.678830    1.241922
      2          1           0       -1.159526    1.339577    2.094914
      3          6           0       -1.096654   -0.661878    1.264805
      4          1           0       -1.077857   -1.291113    2.141514
      5          6           0       -1.061473    1.106381   -0.207889
      6          1           0       -1.457102    2.101907   -0.413532
      7          6           0       -0.989459   -1.132514   -0.167806
      8          1           0       -1.321650   -2.157241   -0.338829
      9          6           0       -1.867099   -0.050921   -0.819150
     10          1           0       -2.913967   -0.078706   -0.489648
     11          1           0       -1.839592   -0.069340   -1.914802
     12          6           0        0.343723    0.801015   -0.793221
     13          1           0        0.417426    1.163350   -1.825867
     14          6           0        0.393611   -0.762834   -0.768902
     15          1           0        0.457173   -1.149933   -1.794740
     16          6           0        1.644460   -1.154375    0.023275
     17          1           0        2.344015   -1.707421   -0.612730
     18          1           0        1.421046   -1.772499    0.897556
     19          6           0        1.548199    1.211244   -0.011294
     20          1           0        1.813144    2.242389    0.177819
     21          6           0        2.251048    0.156707    0.417651
     22          1           0        3.158588    0.229100    1.001996
 ---------------------------------------------------------------------

 SCF Done:  E(RmPW1PW91) =  -388.179576829     A.U. after   12 cycles

      1  C    Isotropic =    58.1096   Anisotropy =   167.1882

      2  H    Isotropic =    25.0297   Anisotropy =     2.0705

      3  C    Isotropic =    61.2277   Anisotropy =   164.0357

      4  H    Isotropic =    25.0210   Anisotropy =     2.3816

      5  C    Isotropic =   150.6485   Anisotropy =    17.6885

      6  H    Isotropic =    28.9854   Anisotropy =    10.1466

      7  C    Isotropic =   149.8787   Anisotropy =    22.3768

      8  H    Isotropic =    28.9484   Anisotropy =     9.7618

      9  C    Isotropic =   141.4885   Anisotropy =    29.9590

     10  H    Isotropic =    30.0772   Anisotropy =    10.6764

     11  H    Isotropic =    30.3674   Anisotropy =    11.4908

     12  C    Isotropic =   140.8678   Anisotropy =    32.6723

     13  H    Isotropic =    28.1966   Anisotropy =     8.6826

     14  C    Isotropic =   152.3369   Anisotropy =    31.1197

     15  H    Isotropic =    28.6826   Anisotropy =     8.8834

     16  C    Isotropic =   161.4484   Anisotropy =    23.2225

     17  H    Isotropic =    29.4152   Anisotropy =    11.1771

     18  H    Isotropic =    29.9197   Anisotropy =     8.5837

     19  C    Isotropic =    65.6183   Anisotropy =   133.8307

     20  H    Isotropic =    25.6680   Anisotropy =     1.4653

     21  C    Isotropic =    63.6266   Anisotropy =   121.3820

     22  H    Isotropic =    25.8596   Anisotropy =     3.7397

 The electronic state is 1-A.
 Alpha  occ. eigenvalues --  -10.24129 -10.24026 -10.23952 -10.23814 -10.23363
 Alpha  occ. eigenvalues --  -10.23311 -10.23203 -10.23114 -10.23076 -10.23046
 Alpha  occ. eigenvalues --   -0.91129  -0.83711  -0.74974  -0.74185  -0.69058
 Alpha  occ. eigenvalues --   -0.68391  -0.57446  -0.57045  -0.54563  -0.52420
 Alpha  occ. eigenvalues --   -0.50661  -0.49351  -0.47353  -0.42347  -0.40194
 Alpha  occ. eigenvalues --   -0.39226  -0.37595  -0.36942  -0.35090  -0.34549
 Alpha  occ. eigenvalues --   -0.33582  -0.32261  -0.31542  -0.30799  -0.24171
 Alpha  occ. eigenvalues --   -0.24133
 Alpha virt. eigenvalues --    0.02658   0.03874   0.10889   0.14574   0.14910
 Alpha virt. eigenvalues --    0.15999   0.17158   0.17545   0.18827   0.19206
 Alpha virt. eigenvalues --    0.19774   0.20187   0.20745   0.21929   0.22325

 Mulliken atomic charges:
              1
     1  C   -0.114624
     2  H    0.137954
     3  C   -0.117937
     4  H    0.137771
     5  C   -0.169673
     6  H    0.122932
     7  C   -0.171344
     8  H    0.123429
     9  C   -0.242166
    10  H    0.133707
    11  H    0.123054
    12  C   -0.143469
    13  H    0.143784
    14  C   -0.127703
    15  H    0.140755
    16  C   -0.274262
    17  H    0.143098
    18  H    0.142409
    19  C   -0.108000
    20  H    0.133507
    21  C   -0.145579
    22  H    0.132358
 Sum of Mulliken atomic charges =   0.00000

 Dipole moment (field-independent basis, Debye):
    X=              0.0691    Y=             -0.1746    Z=             -0.2998  Tot=              0.3538
 Quadrupole moment (field-independent basis, Debye-Ang):
   XX=            -60.2772   YY=            -56.3433   ZZ=            -57.8657
   XY=             -0.5693   XZ=              0.9010   YZ=             -0.0411

 Normal termination of Gaussian 09 at Sat Oct 16 14:03:00 2021.
