 Gaussian 09, Revision C.01,
 Gaussian 09:  EM64L-G09RevC.01 23-Sep-2011

 -----------------------------------------------------------------
 # mPW1PW91/6-31g** scrf=(pcm,solvent=chloroform,smd,dovacuum) nmr
 -----------------------------------------------------------------

 99/9=1/99;
 -------
 comment
 -------
 Charge =  0 Multiplicity = 1

                         Standard orientation:
 ---------------------------------------------------------------------
 Center     Atomic      Atomic             Coordinates (Angstroms)
 Number     Number       Type             X           Y           Z
 ---------------------------------------------------------------------
      1          6           0       -1.421217   -0.376999    0.994039
      2          6           0       -2.062479   -1.501420    0.152325
      3          6           0        1.401438    2.072833   -0.367610
      4          6           0        0.394511   -0.729842   -0.762800
      5          6           0       -0.031669    0.093738    0.485160
      6          6           0        0.062936    1.634586    0.268093
      7          6           0       -1.164109    2.158212   -0.511499
      8          6           0       -2.471706    1.871843    0.247543
      9          6           0       -2.372385    0.783408    1.313271
     10          6           0       -2.866367   -1.106795   -1.082014
     11          6           0        2.647672    1.329657    0.139982
     12          6           0       -1.090043    3.652701   -0.844787
     13          6           0        2.561413   -0.202829   -0.021241
     14          6           0        3.948880   -0.789560   -0.266394
     15          8           0        1.754598   -0.516098   -1.154344
     16          8           0        0.178262   -2.136066   -0.581566
     17          1           0       -1.246548   -0.859422    1.970170
     18          1           0       -2.773909   -2.005306    0.824533
     19          1           0        1.345230    1.962310   -1.458559
     20          1           0        1.553545    3.143998   -0.183968
     21          1           0       -0.187239   -0.434429   -1.639452
     22          1           0        0.051969    2.112307    1.260513
     23          1           0       -1.211111    1.629928   -1.471859
     24          1           0       -3.250174    1.617741   -0.480901
     25          1           0       -2.835212    2.782069    0.742886
     26          1           0       -2.015840    1.259186    2.237827
     27          1           0       -3.374769    0.407405    1.551862
     28          1           0       -3.150068   -1.993540   -1.660523
     29          1           0       -2.316385   -0.448686   -1.756682
     30          1           0       -3.794367   -0.602200   -0.796172
     31          1           0        2.844147    1.594921    1.185866
     32          1           0        3.492008    1.714647   -0.446506
     33          1           0       -2.014884    3.987751   -1.327406
     34          1           0       -0.271114    3.868687   -1.537717
     35          1           0       -0.941959    4.252861    0.059286
     36          1           0        4.393270   -0.398996   -1.188067
     37          1           0        4.621177   -0.584479    0.573476
     38          1           0        3.889221   -1.878962   -0.375462
     39          6           0       -1.043733   -2.565267   -0.203719
     40          8           0       -1.325909   -3.758883   -0.187426
     41          8           0        0.869853   -0.125326    1.606910
     42          8           0        2.052465   -0.847801    1.150770
 ---------------------------------------------------------------------

 SCF Done:  E(RmPW1PW91) =  -960.706938758     A.U. after   13 cycles

      1  C    Isotropic =   153.5214   Anisotropy =    29.2630

      2  C    Isotropic =   153.2649   Anisotropy =    29.7168

      3  C    Isotropic =   169.8242   Anisotropy =    15.7655

      4  C    Isotropic =   100.4383   Anisotropy =    37.0952

      5  C    Isotropic =   111.3344   Anisotropy =    48.9078

      6  C    Isotropic =   148.8873   Anisotropy =    23.8342

      7  C    Isotropic =   164.4941   Anisotropy =    15.2732

      8  C    Isotropic =   166.7732   Anisotropy =    23.3864

      9  C    Isotropic =   173.2588   Anisotropy =    12.5282

     10  C    Isotropic =   181.4205   Anisotropy =    20.8426

     11  C    Isotropic =   157.7778   Anisotropy =    34.4321

     12  C    Isotropic =   175.1275   Anisotropy =    27.1597

     13  C    Isotropic =    91.0318   Anisotropy =    24.4340

     14  C    Isotropic =   169.9347   Anisotropy =    42.2699

     15  O    Isotropic =   222.4005   Anisotropy =   100.5408

     16  O    Isotropic =   107.8997   Anisotropy =   164.5832

     17  H    Isotropic =    28.9790   Anisotropy =     6.7027

     18  H    Isotropic =    28.7473   Anisotropy =     8.4561

     19  H    Isotropic =    30.0131   Anisotropy =     6.1115

     20  H    Isotropic =    29.8576   Anisotropy =     9.0977

     21  H    Isotropic =    25.5685   Anisotropy =     3.5388

     22  H    Isotropic =    29.6393   Anisotropy =     4.3066

     23  H    Isotropic =    30.1420   Anisotropy =     4.5727

     24  H    Isotropic =    29.8683   Anisotropy =     7.9469

     25  H    Isotropic =    30.5692   Anisotropy =     9.1674

     26  H    Isotropic =    29.6457   Anisotropy =     9.3340

     27  H    Isotropic =    30.1735   Anisotropy =    10.3249

     28  H    Isotropic =    30.5067   Anisotropy =    11.4270

     29  H    Isotropic =    30.5350   Anisotropy =     4.7800

     30  H    Isotropic =    30.1467   Anisotropy =     8.8546

     31  H    Isotropic =    29.1424   Anisotropy =     7.9744

     32  H    Isotropic =    29.4742   Anisotropy =     9.1339

     33  H    Isotropic =    30.7314   Anisotropy =    10.8050

     34  H    Isotropic =    30.5142   Anisotropy =     9.4950

     35  H    Isotropic =    31.0382   Anisotropy =     9.2241

     36  H    Isotropic =    30.1416   Anisotropy =     9.3369

     37  H    Isotropic =    30.2212   Anisotropy =    10.0686

     38  H    Isotropic =    30.3043   Anisotropy =     9.7022

     39  C    Isotropic =    23.3265   Anisotropy =    97.1362

     40  O    Isotropic =   -64.1102   Anisotropy =   523.6541

     41  O    Isotropic =    34.9528   Anisotropy =   310.0401

     42  O    Isotropic =    50.3004   Anisotropy =   209.6319

 The electronic state is 1-A.
 Alpha  occ. eigenvalues --  -19.30435 -19.29954 -19.29096 -19.26835 -19.22301
 Alpha  occ. eigenvalues --  -10.37837 -10.37308 -10.35962 -10.32272 -10.26399
 Alpha  occ. eigenvalues --  -10.26038 -10.25354 -10.24693 -10.24257 -10.24068
 Alpha  occ. eigenvalues --  -10.24027 -10.24025 -10.23848 -10.23302 -10.22859
 Alpha  occ. eigenvalues --   -1.16915  -1.13544  -1.07978  -1.03866  -0.96292
 Alpha  occ. eigenvalues --   -0.86781  -0.83355  -0.81104  -0.78215  -0.77215
 Alpha  occ. eigenvalues --   -0.74493  -0.71771  -0.70353  -0.67291  -0.66156
 Alpha  occ. eigenvalues --   -0.62224  -0.61134  -0.60532  -0.57490  -0.55232
 Alpha  occ. eigenvalues --   -0.54745  -0.53581  -0.50490  -0.48728  -0.48414
 Alpha  occ. eigenvalues --   -0.47442  -0.47105  -0.46358  -0.45057  -0.43940
 Alpha  occ. eigenvalues --   -0.43246  -0.42977  -0.42740  -0.42146  -0.41603
 Alpha  occ. eigenvalues --   -0.40634  -0.40108  -0.40036  -0.38998  -0.38704
 Alpha  occ. eigenvalues --   -0.38203  -0.37956  -0.37182  -0.36300  -0.35196
 Alpha  occ. eigenvalues --   -0.34485  -0.34387  -0.33854  -0.32914  -0.32072
 Alpha  occ. eigenvalues --   -0.30640  -0.30529  -0.30006  -0.29010  -0.27316
 Alpha  occ. eigenvalues --   -0.26423
 Alpha virt. eigenvalues --    0.01070   0.01900   0.08541   0.08713   0.10375
 Alpha virt. eigenvalues --    0.11278   0.12643   0.13030   0.13681   0.14367
 Alpha virt. eigenvalues --    0.14835   0.15022   0.16148   0.16818   0.17449

 Mulliken atomic charges:
              1
     1  C   -0.129184
     2  C   -0.237519
     3  C   -0.277141
     4  C    0.408649
     5  C    0.183413
     6  C   -0.081794
     7  C   -0.116228
     8  C   -0.247020
     9  C   -0.271551
    10  C   -0.409454
    11  C   -0.255985
    12  C   -0.415593
    13  C    0.463865
    14  C   -0.425413
    15  O   -0.540680
    16  O   -0.485977
    17  H    0.178466
    18  H    0.181360
    19  H    0.141834
    20  H    0.147306
    21  H    0.180331
    22  H    0.147861
    23  H    0.133006
    24  H    0.134487
    25  H    0.132535
    26  H    0.145908
    27  H    0.142479
    28  H    0.158783
    29  H    0.151062
    30  H    0.161543
    31  H    0.157263
    32  H    0.152386
    33  H    0.138269
    34  H    0.137602
    35  H    0.137779
    36  H    0.167570
    37  H    0.162972
    38  H    0.160071
    39  C    0.647299
    40  O   -0.524042
    41  O   -0.323904
    42  O   -0.312616
 Sum of Mulliken atomic charges =   0.00000

 Dipole moment (field-independent basis, Debye):
    X=             -1.2798    Y=              7.2102    Z=             -1.0268  Tot=              7.3946
 Quadrupole moment (field-independent basis, Debye-Ang):
   XX=           -104.6480   YY=           -138.5978   ZZ=           -119.3664
   XY=             -0.8050   XZ=             -2.3057   YZ=             -0.4985

 Normal termination of Gaussian 09 at Sat Oct 16 12:01:02 2021.
