 Gaussian 09, Revision C.01,
 Gaussian 09:  EM64L-G09RevC.01 23-Sep-2011

 -----------------------------------------------------------------
 # mPW1PW91/6-31g** scrf=(pcm,solvent=chloroform,smd,dovacuum) nmr
 -----------------------------------------------------------------

 99/9=1/99;
 -------
 comment
 -------
 Charge =  0 Multiplicity = 1

                         Standard orientation:
 ---------------------------------------------------------------------
 Center     Atomic      Atomic             Coordinates (Angstroms)
 Number     Number       Type             X           Y           Z
 ---------------------------------------------------------------------
      1          1           0       -0.971403   -2.137644    1.273472
      2          6           0       -1.675210   -1.829207    0.496822
      3          1           0       -1.582550   -2.618543   -0.262240
      4          6           0       -3.079139   -1.904943    1.075626
      5          1           0       -3.361799   -2.950008    1.242818
      6          1           0       -3.142470   -1.395159    2.042791
      7          6           0       -3.884787    0.231051   -0.137238
      8          6           0       -2.404694    0.649783    0.190914
      9          6           0       -1.305780   -0.439609   -0.130821
     10          6           0       -4.059908   -1.269533    0.123453
     11          8           0       -4.984090   -1.922637   -0.360282
     12          6           0       -4.852268    0.947413    0.832353
     13          1           0       -4.615962    0.718311    1.877908
     14          1           0       -5.888157    0.628299    0.665388
     15          1           0       -4.816850    2.034623    0.709122
     16          6           0       -4.342880    0.564451   -1.568414
     17          1           0       -3.720949    0.092295   -2.330551
     18          1           0       -4.342871    1.643877   -1.753011
     19          1           0       -5.368176    0.217731   -1.746728
     20          6           0       -2.027057    2.040528   -0.372082
     21          1           0       -2.077078    2.040519   -1.466231
     22          1           0       -2.750106    2.790978   -0.032515
     23          6           0        0.111930    0.079208    0.403835
     24          6           0       -0.630145    2.503615    0.043033
     25          1           0       -0.631637    2.758082    1.109279
     26          1           0       -0.390994    3.431627   -0.490876
     27          6           0        0.433684    1.446712   -0.257688
     28          1           0       -2.384744    0.770287    1.282493
     29          6           0       -1.215639   -0.704038   -1.666161
     30          1           0       -0.347112   -1.323427   -1.916396
     31          1           0       -1.142471    0.210157   -2.258944
     32          1           0       -2.089554   -1.253760   -2.029871
     33          6           0        0.154013    0.173779    1.956938
     34          1           0        1.130819    0.513869    2.316505
     35          1           0        0.020262   -0.801313    2.432634
     36          1           0       -0.591652    0.856156    2.369304
     37          1           0        0.464369    1.307681   -1.347239
     38          8           0        1.104431   -0.901289    0.023243
     39          6           0        2.428711   -0.505187   -0.034854
     40          6           0        2.804410    0.784960    0.030579
     41          6           0        1.839722    1.924363    0.116208
     42          1           0        2.133141    2.725355   -0.573873
     43          1           0        1.861374    2.350891    1.125956
     44          8           0        3.346647   -1.538711   -0.155975
     45          6           0        4.699923   -1.259449   -0.205456
     46          6           0        5.567037   -2.469954   -0.338834
     47          1           0        5.411252   -3.142132    0.511053
     48          1           0        6.630586   -2.212078   -0.373994
     49          1           0        5.321160   -3.011721   -1.257762
     50          6           0        5.186758   -0.015078   -0.138250
     51          1           0        6.241707    0.221359   -0.173751
     52          6           0        4.247454    1.109446   -0.008414
     53          8           0        4.661144    2.260615    0.066260
 ---------------------------------------------------------------------

 SCF Done:  E(RmPW1PW91) =  -1117.79742961     A.U. after   13 cycles

      1  H    Isotropic =    29.0380   Anisotropy =     5.6125

      2  C    Isotropic =   162.2102   Anisotropy =    38.2258

      3  H    Isotropic =    29.9667   Anisotropy =     8.5984

      4  C    Isotropic =   159.5516   Anisotropy =    30.4394

      5  H    Isotropic =    29.4759   Anisotropy =    10.0862

      6  H    Isotropic =    28.8008   Anisotropy =     6.0908

      7  C    Isotropic =   146.8725   Anisotropy =    20.8257

      8  C    Isotropic =   148.5309   Anisotropy =    21.8811

      9  C    Isotropic =   148.7610   Anisotropy =    17.3507

     10  C    Isotropic =   -24.3166   Anisotropy =   204.0095

     11  O    Isotropic =  -259.3816   Anisotropy =   929.7518

     12  C    Isotropic =   167.5428   Anisotropy =    43.4723

     13  H    Isotropic =    30.6692   Anisotropy =     8.7544

     14  H    Isotropic =    30.7839   Anisotropy =    10.8474

     15  H    Isotropic =    30.2320   Anisotropy =     8.0727

     16  C    Isotropic =   174.9121   Anisotropy =    24.9738

     17  H    Isotropic =    30.5709   Anisotropy =     7.1775

     18  H    Isotropic =    30.9212   Anisotropy =     7.3290

     19  H    Isotropic =    30.1729   Anisotropy =    10.8975

     20  C    Isotropic =   171.5291   Anisotropy =    14.4192

     21  H    Isotropic =    29.9007   Anisotropy =     6.4743

     22  H    Isotropic =    30.0608   Anisotropy =     9.3364

     23  C    Isotropic =   106.8144   Anisotropy =    50.0321

     24  C    Isotropic =   165.8575   Anisotropy =    22.8867

     25  H    Isotropic =    30.2557   Anisotropy =     6.5142

     26  H    Isotropic =    29.8049   Anisotropy =    10.3155

     27  C    Isotropic =   161.5450   Anisotropy =     5.3334

     28  H    Isotropic =    29.1028   Anisotropy =     4.4937

     29  C    Isotropic =   174.2216   Anisotropy =    21.7574

     30  H    Isotropic =    30.3193   Anisotropy =     8.4470

     31  H    Isotropic =    30.3108   Anisotropy =     6.9042

     32  H    Isotropic =    30.8877   Anisotropy =     8.1896

     33  C    Isotropic =   181.5261   Anisotropy =    22.4835

     34  H    Isotropic =    30.3557   Anisotropy =     7.9261

     35  H    Isotropic =    30.3140   Anisotropy =     8.4237

     36  H    Isotropic =    30.1323   Anisotropy =     7.8760

     37  H    Isotropic =    29.4764   Anisotropy =     4.1294

     38  O    Isotropic =   185.5226   Anisotropy =    80.1892

     39  C    Isotropic =    31.5657   Anisotropy =    79.9979

     40  C    Isotropic =    90.4856   Anisotropy =   106.8810

     41  C    Isotropic =   169.8420   Anisotropy =    20.4527

     42  H    Isotropic =    29.2521   Anisotropy =    10.0261

     43  H    Isotropic =    29.7264   Anisotropy =     6.9307

     44  O    Isotropic =   125.4440   Anisotropy =   224.3983

     45  C    Isotropic =    34.7041   Anisotropy =   109.8602

     46  C    Isotropic =   175.1894   Anisotropy =    35.6722

     47  H    Isotropic =    29.3959   Anisotropy =     8.4366

     48  H    Isotropic =    29.4881   Anisotropy =     8.9912

     49  H    Isotropic =    29.3966   Anisotropy =     8.4940

     50  C    Isotropic =    81.9343   Anisotropy =    98.7356

     51  H    Isotropic =    25.3012   Anisotropy =     5.2738

     52  C    Isotropic =    22.4822   Anisotropy =   148.4598

     53  O    Isotropic =  -113.0083   Anisotropy =   748.9626

 The electronic state is 1-A.
 Alpha  occ. eigenvalues --  -19.32556 -19.28782 -19.22298 -19.19655 -10.38502
 Alpha  occ. eigenvalues --  -10.33746 -10.32732 -10.32420 -10.31786 -10.27139
 Alpha  occ. eigenvalues --  -10.26510 -10.25390 -10.25113 -10.25072 -10.24937
 Alpha  occ. eigenvalues --  -10.24569 -10.24422 -10.24145 -10.24081 -10.23814
 Alpha  occ. eigenvalues --  -10.23646 -10.23608 -10.23471 -10.22679 -10.22603
 Alpha  occ. eigenvalues --   -1.15117  -1.09212  -1.05472  -1.04096  -0.88109
 Alpha  occ. eigenvalues --   -0.84821  -0.84038  -0.82631  -0.81051  -0.77598
 Alpha  occ. eigenvalues --   -0.76820  -0.74573  -0.72683  -0.70186  -0.69678
 Alpha  occ. eigenvalues --   -0.67833  -0.66778  -0.66471  -0.62837  -0.62332
 Alpha  occ. eigenvalues --   -0.59306  -0.58490  -0.55805  -0.54176  -0.52419
 Alpha  occ. eigenvalues --   -0.51144  -0.50165  -0.49811  -0.49190  -0.48095
 Alpha  occ. eigenvalues --   -0.47484  -0.46592  -0.45042  -0.44639  -0.44185
 Alpha  occ. eigenvalues --   -0.43964  -0.43408  -0.42991  -0.42564  -0.42413
 Alpha  occ. eigenvalues --   -0.41621  -0.41329  -0.41025  -0.40846  -0.40205
 Alpha  occ. eigenvalues --   -0.39764  -0.39440  -0.38753  -0.38280  -0.38252
 Alpha  occ. eigenvalues --   -0.37731  -0.37019  -0.36799  -0.35793  -0.35730
 Alpha  occ. eigenvalues --   -0.34544  -0.34394  -0.34284  -0.33832  -0.33308
 Alpha  occ. eigenvalues --   -0.32634  -0.30567  -0.30026  -0.29081  -0.26500
 Alpha  occ. eigenvalues --   -0.24643  -0.24456  -0.23930
 Alpha virt. eigenvalues --   -0.01809  -0.00580   0.01389   0.08575   0.09242
 Alpha virt. eigenvalues --    0.10831   0.11547   0.12366   0.12512   0.13602
 Alpha virt. eigenvalues --    0.13737   0.14234   0.14557   0.14695   0.15346

 Mulliken atomic charges:
              1
     1  H    0.147512
     2  C   -0.268522
     3  H    0.151990
     4  C   -0.327889
     5  H    0.156585
     6  H    0.167866
     7  C   -0.086349
     8  C   -0.101606
     9  C    0.003655
    10  C    0.467720
    11  O   -0.517942
    12  C   -0.395598
    13  H    0.141837
    14  H    0.150366
    15  H    0.151816
    16  C   -0.388297
    17  H    0.140133
    18  H    0.137111
    19  H    0.144041
    20  C   -0.257705
    21  H    0.139356
    22  H    0.136716
    23  C    0.243754
    24  C   -0.254366
    25  H    0.135383
    26  H    0.141371
    27  C   -0.145149
    28  H    0.134254
    29  C   -0.416923
    30  H    0.147447
    31  H    0.137331
    32  H    0.145165
    33  C   -0.410326
    34  H    0.151644
    35  H    0.153142
    36  H    0.155278
    37  H    0.153626
    38  O   -0.565398
    39  C    0.601437
    40  C   -0.089413
    41  C   -0.269424
    42  H    0.162646
    43  H    0.156516
    44  O   -0.545334
    45  C    0.331575
    46  C   -0.461906
    47  H    0.179838
    48  H    0.180179
    49  H    0.180229
    50  C   -0.231237
    51  H    0.171982
    52  C    0.414904
    53  O   -0.581021
 Sum of Mulliken atomic charges =   0.00000

 Dipole moment (field-independent basis, Debye):
    X=              0.1626    Y=             -1.0211    Z=              1.5949  Tot=              1.9008
 Quadrupole moment (field-independent basis, Debye-Ang):
   XX=           -167.8962   YY=           -154.8541   ZZ=           -143.5174
   XY=            -39.4137   XZ=             -8.6538   YZ=             -2.5264

 Normal termination of Gaussian 09 at Sat Oct 16 15:47:34 2021.
