 Gaussian 09, Revision C.01,
 Gaussian 09:  AM64L-G09RevC.01 23-Sep-2011

 -------------------
 # b3lyp/6-31g** nmr
 -------------------

 99/9=1/99;
 -------
 comment
 -------
 Charge =  0 Multiplicity = 1

                         Standard orientation:
 ---------------------------------------------------------------------
 Center     Atomic      Atomic             Coordinates (Angstroms)
 Number     Number       Type             X           Y           Z
 ---------------------------------------------------------------------
      1          1           0       -2.000450   -0.677389    1.225446
      2          6           0       -1.820006   -0.721605    0.144391
      3          1           0       -1.192108   -1.595137   -0.056408
      4          1           0       -2.784916   -0.876921   -0.349971
      5          6           0       -1.155338    0.562060   -0.357689
      6          1           0       -1.814447    1.421564   -0.165265
      7          1           0       -1.010858    0.517041   -1.443795
      8          6           0        0.175900    0.886517    0.308889
      9          1           0        0.089261    0.905767    1.398038
     10          1           0        0.573830    1.843619   -0.033475
     11         17           0        1.466844   -0.347081   -0.067536
 ---------------------------------------------------------------------

 SCF Done:  E(RB3LYP) =  -578.749492157     A.U. after   12 cycles

      1  H    Isotropic =    31.0606   Anisotropy =     9.1233

      2  C    Isotropic =   178.8703   Anisotropy =    19.4082

      3  H    Isotropic =    30.1294   Anisotropy =     6.6677

      4  H    Isotropic =    30.7621   Anisotropy =    10.2905

      5  C    Isotropic =   163.6277   Anisotropy =    19.6525

      6  H    Isotropic =    30.1020   Anisotropy =     9.3569

      7  H    Isotropic =    30.0387   Anisotropy =     7.7810

      8  C    Isotropic =   138.9465   Anisotropy =    44.4654

      9  H    Isotropic =    28.3839   Anisotropy =     8.7781

     10  H    Isotropic =    28.0883   Anisotropy =     9.1771

     11  Cl   Isotropic =   863.0246   Anisotropy =   344.7562

 The electronic state is 1-A.
 Alpha  occ. eigenvalues -- -101.52744 -10.24629 -10.20043 -10.18119  -9.44391
 Alpha  occ. eigenvalues --   -7.20772  -7.19816  -7.19801  -0.85101  -0.77020
 Alpha  occ. eigenvalues --   -0.67890  -0.59196  -0.47360  -0.46439  -0.42566
 Alpha  occ. eigenvalues --   -0.39783  -0.36713  -0.35826  -0.34516  -0.29173
 Alpha  occ. eigenvalues --   -0.28987
 Alpha virt. eigenvalues --    0.02899   0.08850   0.12833   0.13445   0.15550
 Alpha virt. eigenvalues --    0.15948   0.17624   0.18321   0.20900   0.24547
 Alpha virt. eigenvalues --    0.40650   0.44090   0.45958   0.47234   0.49961

 Mulliken atomic charges:
              1
     1  H    0.104034
     2  C   -0.317293
     3  H    0.131482
     4  H    0.107575
     5  C   -0.176618
     6  H    0.108072
     7  H    0.120520
     8  C   -0.271956
     9  H    0.150828
    10  H    0.151968
    11  Cl  -0.108612
 Sum of Mulliken atomic charges =   0.00000

 Dipole moment (field-independent basis, Debye):
    X=             -1.7798    Y=              1.3273    Z=              0.3158  Tot=              2.2426
 Quadrupole moment (field-independent basis, Debye-Ang):
   XX=            -34.7375   YY=            -31.6426   ZZ=            -32.5736
   XY=              0.3704   XZ=              0.1689   YZ=              0.4206

 Normal termination of Gaussian 09 at Fri Nov  1 16:45:12 2024.
