 Gaussian 09, Revision C.01,
 Gaussian 09:  EM64L-G09RevC.01 23-Sep-2011

 -----------------------------------------------------------------
 # mPW1PW91/6-31g** scrf=(pcm,solvent=chloroform,smd,dovacuum) nmr
 -----------------------------------------------------------------

 99/9=1/99;
 -------
 comment
 -------
 Charge =  0 Multiplicity = 1

                         Standard orientation:
 ---------------------------------------------------------------------
 Center     Atomic      Atomic             Coordinates (Angstroms)
 Number     Number       Type             X           Y           Z
 ---------------------------------------------------------------------
      1         14           0        0.000000    0.000000    0.000000
      2          6           0        1.082679    1.082679    1.082679
      3          1           0        0.470098    1.723641    1.723641
      4          1           0        1.723641    1.723641    0.470098
      5          1           0        1.723641    0.470098    1.723641
      6          6           0       -1.082679   -1.082679    1.082679
      7          1           0       -1.723641   -0.470098    1.723641
      8          1           0       -0.470098   -1.723641    1.723641
      9          1           0       -1.723641   -1.723641    0.470098
     10          6           0       -1.082679    1.082679   -1.082679
     11          1           0       -1.723641    1.723641   -0.470098
     12          1           0       -1.723641    0.470098   -1.723641
     13          1           0       -0.470098    1.723641   -1.723641
     14          6           0        1.082679   -1.082679   -1.082679
     15          1           0        1.723641   -1.723641   -0.470098
     16          1           0        1.723641   -0.470098   -1.723641
     17          1           0        0.470098   -1.723641   -1.723641
 ---------------------------------------------------------------------

 SCF Done:  E(RmPW1PW91) =  -449.165093355     A.U. after    8 cycles

      1  Si   Isotropic =   416.5219   Anisotropy =     0.0000

      2  C    Isotropic =   197.5835   Anisotropy =     6.0716

      3  H    Isotropic =    31.7158   Anisotropy =    10.5103

      4  H    Isotropic =    31.7158   Anisotropy =    10.5103

      5  H    Isotropic =    31.7158   Anisotropy =    10.5103

      6  C    Isotropic =   197.5835   Anisotropy =     6.0716

      7  H    Isotropic =    31.7158   Anisotropy =    10.5103

      8  H    Isotropic =    31.7158   Anisotropy =    10.5103

      9  H    Isotropic =    31.7158   Anisotropy =    10.5103

     10  C    Isotropic =   197.5835   Anisotropy =     6.0716

     11  H    Isotropic =    31.7158   Anisotropy =    10.5103

     12  H    Isotropic =    31.7158   Anisotropy =    10.5103

     13  H    Isotropic =    31.7158   Anisotropy =    10.5103

     14  C    Isotropic =   197.5835   Anisotropy =     6.0716

     15  H    Isotropic =    31.7158   Anisotropy =    10.5103

     16  H    Isotropic =    31.7158   Anisotropy =    10.5103

     17  H    Isotropic =    31.7158   Anisotropy =    10.5103

 The electronic state is 1-A1.
 Alpha  occ. eigenvalues --  -66.25939 -10.20832 -10.20832 -10.20832 -10.20832
 Alpha  occ. eigenvalues --   -5.29974  -3.63651  -3.63651  -3.63651  -0.73202
 Alpha  occ. eigenvalues --   -0.68639  -0.68639  -0.68639  -0.45921  -0.41589
 Alpha  occ. eigenvalues --   -0.41589  -0.41589  -0.39958  -0.39958  -0.38061
 Alpha  occ. eigenvalues --   -0.38061  -0.38061  -0.29412  -0.29412  -0.29412
 Alpha virt. eigenvalues --    0.09460   0.12087   0.12087   0.12087   0.15865
 Alpha virt. eigenvalues --    0.15865   0.15865   0.16853   0.16853   0.22467
 Alpha virt. eigenvalues --    0.22467   0.22467   0.22747   0.22747   0.22747

 Mulliken atomic charges:
              1
     1  Si   0.797381
     2  C   -0.643669
     3  H    0.148108
     4  H    0.148108
     5  H    0.148108
     6  C   -0.643669
     7  H    0.148108
     8  H    0.148108
     9  H    0.148108
    10  C   -0.643669
    11  H    0.148108
    12  H    0.148108
    13  H    0.148108
    14  C   -0.643669
    15  H    0.148108
    16  H    0.148108
    17  H    0.148108
 Sum of Mulliken atomic charges =   0.00000

 Dipole moment (field-independent basis, Debye):
    X=              0.0000    Y=              0.0000    Z=              0.0000  Tot=              0.0000
 Quadrupole moment (field-independent basis, Debye-Ang):
   XX=            -41.1412   YY=            -41.1412   ZZ=            -41.1412
   XY=              0.0000   XZ=              0.0000   YZ=              0.0000

 Normal termination of Gaussian 09 at Sat Oct 16 08:07:08 2021.
