 Gaussian 09, Revision C.01,
 Gaussian 09:  AM64L-G09RevC.01 23-Sep-2011

 ------------------------------------------------
 # mpw1pw91/6-31+G** nmr scrf=(pcm,solvent=water)
 ------------------------------------------------

 99/9=1/99;
 -------
 comment
 -------
 Charge =  0 Multiplicity = 1

                         Standard orientation:
 ---------------------------------------------------------------------
 Center     Atomic      Atomic             Coordinates (Angstroms)
 Number     Number       Type             X           Y           Z
 ---------------------------------------------------------------------
      1          6           0       -2.475749    0.360860    0.334887
      2          6           0       -1.027286    0.322987    0.847150
      3          7           0       -0.368383   -0.840291    0.145141
      4          6           0       -1.360122   -1.455387   -0.761151
      5          6           0       -2.713368   -1.078627   -0.151067
      6          6           0        0.874669   -0.370875   -0.488796
      7          6           0        1.249696    0.874619    0.339426
      8          6           0       -0.117751    1.539422    0.593869
      9          1           0       -3.178924    0.677925    1.110571
     10          1           0       -2.569417    1.057779   -0.505031
     11          1           0       -1.021828    0.130322    1.927110
     12          1           0       -1.215410   -2.539071   -0.833580
     13          1           0       -1.272028   -1.041602   -1.780226
     14          1           0       -2.943548   -1.736269    0.695741
     15          1           0       -3.531153   -1.159407   -0.873740
     16          1           0        0.706944   -0.054798   -1.535225
     17          1           0        1.689847    0.560142    1.291093
     18          1           0       -0.096966    2.224643    1.444108
     19          8           0       -0.476702    2.360191   -0.528379
     20          1           0       -0.643201    1.788056   -1.297646
     21          8           0        2.186733    1.733121   -0.291600
     22          1           0        1.661875    2.253122   -0.929601
     23          6           0        1.943893   -1.462331   -0.501453
     24          1           0        1.652038   -2.258555   -1.203103
     25          1           0        2.896764   -1.045887   -0.845239
     26          8           0        2.157820   -2.000518    0.804245
     27          1           0        1.256991   -2.100729    1.167462
 ---------------------------------------------------------------------

 SCF Done:  E(RmPW1PW91) =  -594.201775612     A.U. after   13 cycles

      1  C    Isotropic =   169.9459   Anisotropy =    22.0342

      2  C    Isotropic =   128.8754   Anisotropy =    50.6802

      3  N    Isotropic =   202.4269   Anisotropy =    68.0315

      4  C    Isotropic =   139.1534   Anisotropy =    55.8034

      5  C    Isotropic =   165.4044   Anisotropy =    22.5771

      6  C    Isotropic =   123.5891   Anisotropy =    53.0927

      7  C    Isotropic =   120.3521   Anisotropy =    55.8729

      8  C    Isotropic =   120.3645   Anisotropy =    31.1309

      9  H    Isotropic =    29.7873   Anisotropy =    11.7555

     10  H    Isotropic =    29.7958   Anisotropy =     7.1780

     11  H    Isotropic =    27.8607   Anisotropy =     8.7997

     12  H    Isotropic =    28.3501   Anisotropy =     9.7077

     13  H    Isotropic =    29.3602   Anisotropy =     8.5548

     14  H    Isotropic =    29.5037   Anisotropy =    11.0033

     15  H    Isotropic =    29.4794   Anisotropy =    11.7894

     16  H    Isotropic =    29.3776   Anisotropy =     2.9301

     17  H    Isotropic =    27.2477   Anisotropy =     3.5359

     18  H    Isotropic =    27.7113   Anisotropy =     8.3118

     19  O    Isotropic =   303.2665   Anisotropy =    82.5177

     20  H    Isotropic =    31.1076   Anisotropy =    14.5304

     21  O    Isotropic =   304.4874   Anisotropy =    33.0541

     22  H    Isotropic =    28.9635   Anisotropy =    14.6162

     23  C    Isotropic =   135.9653   Anisotropy =    57.5588

     24  H    Isotropic =    27.7839   Anisotropy =     7.7525

     25  H    Isotropic =    27.8832   Anisotropy =     6.5806

     26  O    Isotropic =   328.7712   Anisotropy =    50.3235

     27  H    Isotropic =    29.1558   Anisotropy =    16.2940

 The electronic state is 1-A.
 Alpha  occ. eigenvalues --  -19.27113 -19.25869 -19.24986 -14.42036 -10.30947
 Alpha  occ. eigenvalues --  -10.30517 -10.29386 -10.28410 -10.28384 -10.27315
 Alpha  occ. eigenvalues --  -10.25026 -10.24925  -1.08426  -1.05550  -1.05233
 Alpha  occ. eigenvalues --   -0.96887  -0.83177  -0.79751  -0.75235  -0.71898
 Alpha  occ. eigenvalues --   -0.67406  -0.62206  -0.60883  -0.58717  -0.55422
 Alpha  occ. eigenvalues --   -0.53564  -0.51217  -0.50765  -0.48998  -0.47795
 Alpha  occ. eigenvalues --   -0.46754  -0.45107  -0.43645  -0.42483  -0.40375
 Alpha  occ. eigenvalues --   -0.39778  -0.39472  -0.38134  -0.36262  -0.35962
 Alpha  occ. eigenvalues --   -0.35684  -0.34741  -0.33883  -0.31743  -0.30084
 Alpha  occ. eigenvalues --   -0.28559  -0.24005
 Alpha virt. eigenvalues --    0.00186   0.01265   0.02101   0.02327   0.03982
 Alpha virt. eigenvalues --    0.04325   0.04550   0.04891   0.05529   0.07226
 Alpha virt. eigenvalues --    0.07642   0.08178   0.08788   0.08866   0.09279

 Mulliken atomic charges:
              1
     1  C   -0.457379
     2  C   -0.019644
     3  N   -0.299969
     4  C   -0.307575
     5  C   -0.299639
     6  C    0.408986
     7  C   -0.361096
     8  C    0.175667
     9  H    0.181941
    10  H    0.169684
    11  H    0.179203
    12  H    0.172413
    13  H    0.157181
    14  H    0.181568
    15  H    0.179676
    16  H    0.147616
    17  H    0.191408
    18  H    0.178414
    19  O   -0.589844
    20  H    0.396333
    21  O   -0.509766
    22  H    0.383645
    23  C   -0.407296
    24  H    0.154169
    25  H    0.166085
    26  O   -0.560020
    27  H    0.388239
 Sum of Mulliken atomic charges =   0.00000

 Dipole moment (field-independent basis, Debye):
    X=             -5.3676    Y=             -0.6529    Z=             -2.0527  Tot=              5.7837
 Quadrupole moment (field-independent basis, Debye-Ang):
   XX=            -83.5232   YY=            -82.9672   ZZ=            -66.7003
   XY=              3.6890   XZ=             -3.8493   YZ=              2.6332

 Normal termination of Gaussian 09 at Fri May 17 12:36:51 2024.
