 Gaussian 09, Revision C.01,
 Gaussian 09:  AM64L-G09RevC.01 23-Sep-2011

 ------------------------------------------------
 # mpw1pw91/6-31+G** nmr scrf=(pcm,solvent=water)
 ------------------------------------------------

 99/9=1/99;
 -------
 comment
 -------
 Charge =  0 Multiplicity = 1

                         Standard orientation:
 ---------------------------------------------------------------------
 Center     Atomic      Atomic             Coordinates (Angstroms)
 Number     Number       Type             X           Y           Z
 ---------------------------------------------------------------------
      1          6           0       -2.544294   -0.012865    0.092685
      2          6           0       -1.220284    0.343029    0.786580
      3          7           0       -0.261392   -0.778386    0.466967
      4          6           0       -0.954777   -1.725562   -0.427348
      5          6           0       -2.439024   -1.533648   -0.108287
      6          6           0        0.981753   -0.192677   -0.065706
      7          6           0        0.978216    1.246897    0.492263
      8          6           0       -0.506763    1.643870    0.382333
      9          1           0       -3.415202    0.288685    0.682141
     10          1           0       -2.610679    0.486851   -0.879802
     11          1           0       -1.367580    0.378092    1.873611
     12          1           0       -0.613114   -2.752504   -0.259766
     13          1           0       -0.762161   -1.486355   -1.487804
     14          1           0       -2.701745   -2.062962    0.815616
     15          1           0       -3.087204   -1.907354   -0.907186
     16          1           0        0.947395   -0.130016   -1.169930
     17          1           0        1.280618    1.237069    1.545614
     18          1           0       -0.763596    2.480484    1.035680
     19          8           0       -0.780765    2.118496   -0.945399
     20          1           0       -0.691508    1.378259   -1.571137
     21          8           0        1.849901    2.140779   -0.181475
     22          1           0        1.357392    2.418206   -0.977480
     23          6           0        2.247947   -0.949180    0.297886
     24          1           0        3.116353   -0.351328   -0.016037
     25          1           0        2.306876   -1.083686    1.387074
     26          8           0        2.247585   -2.218080   -0.368458
     27          1           0        3.043482   -2.693490   -0.079155
 ---------------------------------------------------------------------

 SCF Done:  E(RmPW1PW91) =  -594.197205277     A.U. after   13 cycles

      1  C    Isotropic =   170.4507   Anisotropy =    21.7852

      2  C    Isotropic =   128.8915   Anisotropy =    50.3195

      3  N    Isotropic =   189.6492   Anisotropy =    88.1169

      4  C    Isotropic =   135.9167   Anisotropy =    56.1088

      5  C    Isotropic =   165.1868   Anisotropy =    23.8325

      6  C    Isotropic =   123.7773   Anisotropy =    52.0941

      7  C    Isotropic =   117.8039   Anisotropy =    51.1890

      8  C    Isotropic =   120.5608   Anisotropy =    31.1199

      9  H    Isotropic =    29.8464   Anisotropy =    11.7849

     10  H    Isotropic =    29.8202   Anisotropy =     7.1079

     11  H    Isotropic =    27.8639   Anisotropy =     9.0829

     12  H    Isotropic =    28.1464   Anisotropy =     8.5952

     13  H    Isotropic =    29.2138   Anisotropy =     7.4920

     14  H    Isotropic =    29.5229   Anisotropy =    10.9276

     15  H    Isotropic =    29.5019   Anisotropy =    11.5802

     16  H    Isotropic =    29.1466   Anisotropy =     4.0387

     17  H    Isotropic =    27.7324   Anisotropy =     4.7207

     18  H    Isotropic =    27.7645   Anisotropy =     8.5349

     19  O    Isotropic =   302.0688   Anisotropy =    84.0864

     20  H    Isotropic =    31.1078   Anisotropy =    14.5904

     21  O    Isotropic =   302.1301   Anisotropy =    34.4184

     22  H    Isotropic =    28.8089   Anisotropy =    14.3149

     23  C    Isotropic =   125.8900   Anisotropy =    50.0787

     24  H    Isotropic =    27.4821   Anisotropy =     5.1993

     25  H    Isotropic =    27.9058   Anisotropy =     5.1124

     26  O    Isotropic =   312.5911   Anisotropy =    90.7490

     27  H    Isotropic =    30.2860   Anisotropy =    21.7064

 The electronic state is 1-A.
 Alpha  occ. eigenvalues --  -19.27135 -19.25887 -19.25417 -14.41332 -10.30922
 Alpha  occ. eigenvalues --  -10.30817 -10.29494 -10.28258 -10.28140 -10.26807
 Alpha  occ. eigenvalues --  -10.24830 -10.24650  -1.08468  -1.05571  -1.05358
 Alpha  occ. eigenvalues --   -0.96523  -0.83192  -0.79530  -0.75509  -0.71748
 Alpha  occ. eigenvalues --   -0.66790  -0.62084  -0.60658  -0.58679  -0.54341
 Alpha  occ. eigenvalues --   -0.53709  -0.53222  -0.51010  -0.48286  -0.47821
 Alpha  occ. eigenvalues --   -0.46274  -0.45543  -0.43073  -0.42088  -0.40134
 Alpha  occ. eigenvalues --   -0.39557  -0.39064  -0.38317  -0.36222  -0.35717
 Alpha  occ. eigenvalues --   -0.35500  -0.34668  -0.33795  -0.31727  -0.29655
 Alpha  occ. eigenvalues --   -0.29172  -0.23226
 Alpha virt. eigenvalues --    0.00458   0.01365   0.01619   0.02186   0.03909
 Alpha virt. eigenvalues --    0.04265   0.04780   0.04833   0.05720   0.07332
 Alpha virt. eigenvalues --    0.07624   0.07900   0.08547   0.08934   0.09759

 Mulliken atomic charges:
              1
     1  C   -0.451816
     2  C   -0.007470
     3  N   -0.171799
     4  C   -0.255551
     5  C   -0.310135
     6  C    0.117122
     7  C   -0.311506
     8  C    0.194101
     9  H    0.179712
    10  H    0.170319
    11  H    0.175116
    12  H    0.170377
    13  H    0.150781
    14  H    0.179260
    15  H    0.177928
    16  H    0.146176
    17  H    0.185767
    18  H    0.178644
    19  O   -0.587064
    20  H    0.398186
    21  O   -0.520130
    22  H    0.386602
    23  C   -0.323382
    24  H    0.161560
    25  H    0.162413
    26  O   -0.589486
    27  H    0.394275
 Sum of Mulliken atomic charges =   0.00000

 Dipole moment (field-independent basis, Debye):
    X=             -1.0811    Y=             -1.3166    Z=              0.3489  Tot=              1.7389
 Quadrupole moment (field-independent basis, Debye-Ang):
   XX=            -68.1365   YY=            -81.6331   ZZ=            -69.6059
   XY=             -4.9030   XZ=              1.8555   YZ=              0.2453

 Normal termination of Gaussian 09 at Fri May 17 12:27:07 2024.
