 Gaussian 09, Revision C.01,
 Gaussian 09:  AM64L-G09RevC.01 23-Sep-2011

 ------------------------------------------------
 # mpw1pw91/6-31+G** nmr scrf=(pcm,solvent=water)
 ------------------------------------------------

 99/9=1/99;
 -------
 comment
 -------
 Charge =  0 Multiplicity = 1

                         Standard orientation:
 ---------------------------------------------------------------------
 Center     Atomic      Atomic             Coordinates (Angstroms)
 Number     Number       Type             X           Y           Z
 ---------------------------------------------------------------------
      1          6           0        2.169938    0.067833   -0.581883
      2          6           0        0.675905    0.020976   -0.950312
      3          7           0        0.086985   -1.117322   -0.166162
      4          6           0        1.189577   -1.754515    0.598613
      5          6           0        2.459642   -1.380962   -0.166566
      6          6           0       -1.018884   -0.592921    0.675365
      7          6           0       -0.815791    0.928694    0.752139
      8          6           0       -0.170284    1.272946   -0.598534
      9          1           0        2.793009    0.417950   -1.411109
     10          1           0        2.334141    0.736194    0.269006
     11          1           0        0.574620   -0.186115   -2.022608
     12          1           0        1.040432   -2.838635    0.669073
     13          1           0        1.244066   -1.364504    1.625542
     14          1           0        2.577266   -2.019158   -1.050883
     15          1           0        3.360260   -1.484071    0.446830
     16          1           0       -0.938059   -1.010516    1.685631
     17          1           0       -1.756366    1.473017    0.910347
     18          1           0       -0.958950    1.405565   -1.345661
     19          8           0        0.561766    2.493769   -0.454392
     20          1           0        1.173575    2.571133   -1.205077
     21          8           0        0.096438    1.220188    1.819814
     22          1           0        0.602216    1.998823    1.519758
     23          6           0       -2.406664   -0.992029    0.179184
     24          1           0       -2.481576   -2.088037    0.156625
     25          1           0       -3.153870   -0.622484    0.897088
     26          8           0       -2.653672   -0.449272   -1.122628
     27          1           0       -3.556553   -0.705520   -1.371819
 ---------------------------------------------------------------------

 SCF Done:  E(RmPW1PW91) =  -594.192874499     A.U. after   13 cycles

      1  C    Isotropic =   166.4862   Anisotropy =    18.6836

      2  C    Isotropic =   125.2861   Anisotropy =    55.2772

      3  N    Isotropic =   192.9040   Anisotropy =    83.6533

      4  C    Isotropic =   136.5011   Anisotropy =    62.1591

      5  C    Isotropic =   166.2112   Anisotropy =    20.4229

      6  C    Isotropic =   122.4690   Anisotropy =    31.8742

      7  C    Isotropic =   114.9886   Anisotropy =    24.7172

      8  C    Isotropic =   119.4034   Anisotropy =    51.1870

      9  H    Isotropic =    30.0490   Anisotropy =    10.6773

     10  H    Isotropic =    29.4957   Anisotropy =     6.1383

     11  H    Isotropic =    27.8213   Anisotropy =     7.6264

     12  H    Isotropic =    28.2191   Anisotropy =     9.8138

     13  H    Isotropic =    28.4612   Anisotropy =     7.4188

     14  H    Isotropic =    29.7066   Anisotropy =    11.0913

     15  H    Isotropic =    29.5806   Anisotropy =    11.6528

     16  H    Isotropic =    28.5837   Anisotropy =     5.4275

     17  H    Isotropic =    27.2450   Anisotropy =     7.4121

     18  H    Isotropic =    26.7355   Anisotropy =     5.6781

     19  O    Isotropic =   304.5387   Anisotropy =    48.3210

     20  H    Isotropic =    30.0561   Anisotropy =    18.3906

     21  O    Isotropic =   302.9444   Anisotropy =    39.7342

     22  H    Isotropic =    28.3736   Anisotropy =    16.2663

     23  C    Isotropic =   127.0185   Anisotropy =    36.8542

     24  H    Isotropic =    27.7439   Anisotropy =     7.3399

     25  H    Isotropic =    27.7795   Anisotropy =     7.1557

     26  O    Isotropic =   315.4322   Anisotropy =    90.8458

     27  H    Isotropic =    30.4073   Anisotropy =    22.4671

 The electronic state is 1-A.
 Alpha  occ. eigenvalues --  -19.26611 -19.25427 -19.24891 -14.40854 -10.30234
 Alpha  occ. eigenvalues --  -10.30081 -10.29444 -10.27988 -10.27524 -10.26512
 Alpha  occ. eigenvalues --  -10.24459 -10.24346  -1.07831  -1.05598  -1.04485
 Alpha  occ. eigenvalues --   -0.95724  -0.82720  -0.78552  -0.75351  -0.71765
 Alpha  occ. eigenvalues --   -0.66292  -0.60579  -0.60106  -0.58536  -0.54728
 Alpha  occ. eigenvalues --   -0.52914  -0.51656  -0.51401  -0.49410  -0.46791
 Alpha  occ. eigenvalues --   -0.45769  -0.44554  -0.43375  -0.41917  -0.40285
 Alpha  occ. eigenvalues --   -0.38712  -0.38486  -0.37074  -0.36005  -0.35458
 Alpha  occ. eigenvalues --   -0.34833  -0.34006  -0.33923  -0.30420  -0.29578
 Alpha  occ. eigenvalues --   -0.28889  -0.22696
 Alpha virt. eigenvalues --    0.00219   0.01185   0.02180   0.02451   0.03469
 Alpha virt. eigenvalues --    0.04038   0.04617   0.05286   0.05480   0.06921
 Alpha virt. eigenvalues --    0.07818   0.08216   0.08927   0.09168   0.09782

 Mulliken atomic charges:
              1
     1  C   -0.414978
     2  C   -0.136143
     3  N   -0.119203
     4  C   -0.078356
     5  C   -0.464099
     6  C    0.098406
     7  C   -0.093637
     8  C   -0.020224
     9  H    0.175589
    10  H    0.184922
    11  H    0.164201
    12  H    0.157287
    13  H    0.161088
    14  H    0.175601
    15  H    0.176130
    16  H    0.172281
    17  H    0.155634
    18  H    0.185765
    19  O   -0.580470
    20  H    0.389334
    21  O   -0.556693
    22  H    0.386656
    23  C   -0.214050
    24  H    0.159263
    25  H    0.155318
    26  O   -0.632029
    27  H    0.412406
 Sum of Mulliken atomic charges =   0.00000

 Dipole moment (field-independent basis, Debye):
    X=             -0.2756    Y=             -0.5803    Z=             -1.5491  Tot=              1.6771
 Quadrupole moment (field-independent basis, Debye-Ang):
   XX=            -57.5072   YY=            -74.3913   ZZ=            -75.8130
   XY=              5.2219   XZ=             -2.8870   YZ=             -6.1645

 Normal termination of Gaussian 09 at Fri May 17 12:20:09 2024.
