 Gaussian 09, Revision C.01,
 Gaussian 09:  AM64L-G09RevC.01 23-Sep-2011

 ------------------------------------------------
 # mpw1pw91/6-31+G** nmr scrf=(pcm,solvent=water)
 ------------------------------------------------

 99/9=1/99;
 -------
 comment
 -------
 Charge =  0 Multiplicity = 1

                         Standard orientation:
 ---------------------------------------------------------------------
 Center     Atomic      Atomic             Coordinates (Angstroms)
 Number     Number       Type             X           Y           Z
 ---------------------------------------------------------------------
      1          6           0       -2.482989    0.404701    0.335168
      2          6           0       -1.033988    0.346837    0.845532
      3          7           0       -0.393632   -0.824487    0.144305
      4          6           0       -1.389296   -1.421227   -0.768683
      5          6           0       -2.738608   -1.029528   -0.158869
      6          6           0        0.860215   -0.371581   -0.481994
      7          6           0        1.239733    0.861668    0.357676
      8          6           0       -0.114927    1.547628    0.577751
      9          1           0       -3.183123    0.724233    1.112761
     10          1           0       -2.561893    1.104354   -0.501831
     11          1           0       -1.026179    0.159304    1.926661
     12          1           0       -1.258956   -2.506586   -0.845411
     13          1           0       -1.293150   -1.004166   -1.785394
     14          1           0       -2.979914   -1.689526    0.683103
     15          1           0       -3.555946   -1.095064   -0.883727
     16          1           0        0.700297   -0.039459   -1.521790
     17          1           0        1.650087    0.539632    1.323895
     18          1           0       -0.095756    2.247300    1.423614
     19          8           0       -0.500719    2.237013   -0.615176
     20          1           0        0.322385    2.619877   -0.970640
     21          8           0        2.126854    1.772550   -0.285810
     22          1           0        2.918807    1.283315   -0.565390
     23          6           0        1.908936   -1.483729   -0.497185
     24          1           0        1.599409   -2.268201   -1.204426
     25          1           0        2.872869   -1.091024   -0.841778
     26          8           0        2.116060   -2.034833    0.803628
     27          1           0        1.214468   -2.139036    1.162715
 ---------------------------------------------------------------------

 SCF Done:  E(RmPW1PW91) =  -594.202156087     A.U. after   13 cycles

      1  C    Isotropic =   170.7054   Anisotropy =    20.6675

      2  C    Isotropic =   127.8838   Anisotropy =    50.3896

      3  N    Isotropic =   200.3418   Anisotropy =    72.4297

      4  C    Isotropic =   139.6889   Anisotropy =    56.1854

      5  C    Isotropic =   164.9618   Anisotropy =    22.9389

      6  C    Isotropic =   123.5119   Anisotropy =    49.3613

      7  C    Isotropic =   119.8344   Anisotropy =    54.9341

      8  C    Isotropic =   122.8041   Anisotropy =    28.4694

      9  H    Isotropic =    29.9225   Anisotropy =    11.6973

     10  H    Isotropic =    29.3186   Anisotropy =     7.2565

     11  H    Isotropic =    27.9470   Anisotropy =     8.7784

     12  H    Isotropic =    28.4030   Anisotropy =     9.7354

     13  H    Isotropic =    29.2148   Anisotropy =     8.3908

     14  H    Isotropic =    29.5076   Anisotropy =    10.9412

     15  H    Isotropic =    29.4727   Anisotropy =    11.7364

     16  H    Isotropic =    28.8454   Anisotropy =     2.5735

     17  H    Isotropic =    27.1193   Anisotropy =     3.4555

     18  H    Isotropic =    27.5211   Anisotropy =     8.7438

     19  O    Isotropic =   310.8251   Anisotropy =    46.7171

     20  H    Isotropic =    28.7062   Anisotropy =    18.3765

     21  O    Isotropic =   304.6710   Anisotropy =    29.0633

     22  H    Isotropic =    29.5797   Anisotropy =    19.2483

     23  C    Isotropic =   136.2823   Anisotropy =    59.5685

     24  H    Isotropic =    27.7593   Anisotropy =     7.7268

     25  H    Isotropic =    28.1339   Anisotropy =     6.5638

     26  O    Isotropic =   328.4971   Anisotropy =    49.3579

     27  H    Isotropic =    29.1237   Anisotropy =    16.3665

 The electronic state is 1-A.
 Alpha  occ. eigenvalues --  -19.26985 -19.25251 -19.25068 -14.41700 -10.30834
 Alpha  occ. eigenvalues --  -10.30412 -10.29630 -10.28182 -10.28015 -10.27009
 Alpha  occ. eigenvalues --  -10.24661 -10.24421  -1.08262  -1.05482  -1.05020
 Alpha  occ. eigenvalues --   -0.96553  -0.82974  -0.79544  -0.75090  -0.71892
 Alpha  occ. eigenvalues --   -0.66928  -0.61484  -0.60617  -0.57719  -0.54774
 Alpha  occ. eigenvalues --   -0.54646  -0.52396  -0.49763  -0.49440  -0.47747
 Alpha  occ. eigenvalues --   -0.46221  -0.44731  -0.43210  -0.42668  -0.40538
 Alpha  occ. eigenvalues --   -0.39621  -0.38996  -0.37735  -0.36652  -0.35522
 Alpha  occ. eigenvalues --   -0.34806  -0.33905  -0.33381  -0.31043  -0.30218
 Alpha  occ. eigenvalues --   -0.28880  -0.23675
 Alpha virt. eigenvalues --    0.00337   0.01273   0.02047   0.02341   0.04014
 Alpha virt. eigenvalues --    0.04411   0.04583   0.05023   0.05688   0.06998
 Alpha virt. eigenvalues --    0.07631   0.08110   0.09012   0.09291   0.09367

 Mulliken atomic charges:
              1
     1  C   -0.525789
     2  C    0.054688
     3  N   -0.272692
     4  C   -0.287722
     5  C   -0.308278
     6  C    0.255083
     7  C   -0.297948
     8  C    0.170227
     9  H    0.173792
    10  H    0.190180
    11  H    0.171300
    12  H    0.168425
    13  H    0.152889
    14  H    0.177906
    15  H    0.176583
    16  H    0.166245
    17  H    0.185886
    18  H    0.160789
    19  O   -0.585876
    20  H    0.392837
    21  O   -0.562599
    22  H    0.385325
    23  C   -0.285655
    24  H    0.158310
    25  H    0.152520
    26  O   -0.555351
    27  H    0.388923
 Sum of Mulliken atomic charges =   0.00000

 Dipole moment (field-independent basis, Debye):
    X=             -0.6213    Y=             -0.6189    Z=             -0.8941  Tot=              1.2524
 Quadrupole moment (field-independent basis, Debye-Ang):
   XX=            -71.7035   YY=            -81.8967   ZZ=            -70.6173
   XY=              7.7578   XZ=             -7.0856   YZ=              4.7425

 Normal termination of Gaussian 09 at Fri May 17 12:12:31 2024.
