 Gaussian 09, Revision C.01,
 Gaussian 09:  AM64L-G09RevC.01 23-Sep-2011

 ------------------------------------------------
 # mpw1pw91/6-31+G** nmr scrf=(pcm,solvent=water)
 ------------------------------------------------

 99/9=1/99;
 -------
 comment
 -------
 Charge =  0 Multiplicity = 1

                         Standard orientation:
 ---------------------------------------------------------------------
 Center     Atomic      Atomic             Coordinates (Angstroms)
 Number     Number       Type             X           Y           Z
 ---------------------------------------------------------------------
      1          6           0       -2.409097   -0.764481    0.329920
      2          6           0       -1.205992   -0.034169    0.962541
      3          7           0        0.019003   -0.850146    0.621903
      4          6           0       -0.434704   -2.004510   -0.192968
      5          6           0       -1.786705   -1.604187   -0.795913
      6          6           0        0.981346    0.037771   -0.067282
      7          6           0        0.604962    1.448084    0.427106
      8          6           0       -0.928482    1.393805    0.458989
      9          1           0       -2.873849   -1.419954    1.075250
     10          1           0       -3.177373   -0.070062   -0.023860
     11          1           0       -1.321345    0.016407    2.051856
     12          1           0       -0.560514   -2.884000    0.452808
     13          1           0        0.320799   -2.257208   -0.941580
     14          1           0       -2.398486   -2.467814   -1.077146
     15          1           0       -1.636319   -0.987818   -1.688956
     16          1           0        0.841961    0.015027   -1.161491
     17          1           0        0.985898    1.600763    1.443017
     18          1           0       -1.363659    2.153337    1.116713
     19          8           0       -1.352941    1.632098   -0.893059
     20          1           0       -2.285608    1.899256   -0.869590
     21          8           0        1.119957    2.506181   -0.367534
     22          1           0        0.518799    2.560269   -1.134103
     23          6           0        2.439732   -0.298019    0.224248
     24          1           0        3.074049    0.475583   -0.221784
     25          1           0        2.611838   -0.296736    1.309916
     26          8           0        2.875653   -1.536228   -0.351151
     27          1           0        2.423074   -2.248211    0.129742
 ---------------------------------------------------------------------

 SCF Done:  E(RmPW1PW91) =  -594.198664381     A.U. after   13 cycles

      1  C    Isotropic =   167.4838   Anisotropy =    23.4948

      2  C    Isotropic =   127.5922   Anisotropy =    52.6019

      3  N    Isotropic =   191.5871   Anisotropy =    71.0617

      4  C    Isotropic =   139.8264   Anisotropy =    57.1914

      5  C    Isotropic =   168.4410   Anisotropy =    24.5898

      6  C    Isotropic =   123.6340   Anisotropy =    41.3174

      7  C    Isotropic =   120.5029   Anisotropy =    53.7011

      8  C    Isotropic =   120.0459   Anisotropy =    23.2816

      9  H    Isotropic =    29.8687   Anisotropy =    12.5471

     10  H    Isotropic =    29.7502   Anisotropy =     9.1897

     11  H    Isotropic =    28.0221   Anisotropy =     9.0698

     12  H    Isotropic =    28.7178   Anisotropy =    11.6748

     13  H    Isotropic =    28.6536   Anisotropy =     7.5051

     14  H    Isotropic =    30.0896   Anisotropy =    12.7768

     15  H    Isotropic =    29.7541   Anisotropy =     7.6916

     16  H    Isotropic =    28.8135   Anisotropy =     4.5458

     17  H    Isotropic =    27.9412   Anisotropy =     4.7320

     18  H    Isotropic =    27.6537   Anisotropy =     8.5705

     19  O    Isotropic =   309.4793   Anisotropy =    35.1290

     20  H    Isotropic =    29.4943   Anisotropy =    20.7636

     21  O    Isotropic =   308.9678   Anisotropy =    30.3111

     22  H    Isotropic =    28.7237   Anisotropy =    14.8572

     23  C    Isotropic =   124.7716   Anisotropy =    49.8905

     24  H    Isotropic =    27.7106   Anisotropy =     5.2786

     25  H    Isotropic =    28.0201   Anisotropy =     5.5394

     26  O    Isotropic =   307.3934   Anisotropy =    22.8111

     27  H    Isotropic =    30.0586   Anisotropy =    14.5267

 The electronic state is 1-A.
 Alpha  occ. eigenvalues --  -19.26547 -19.25647 -19.25540 -14.41291 -10.30722
 Alpha  occ. eigenvalues --  -10.30661 -10.29267 -10.27873 -10.27648 -10.26777
 Alpha  occ. eigenvalues --  -10.24786 -10.24214  -1.08092  -1.05578  -1.05089
 Alpha  occ. eigenvalues --   -0.96168  -0.82634  -0.79341  -0.75285  -0.71706
 Alpha  occ. eigenvalues --   -0.66340  -0.62454  -0.60103  -0.57990  -0.55994
 Alpha  occ. eigenvalues --   -0.53301  -0.52258  -0.50248  -0.48816  -0.47133
 Alpha  occ. eigenvalues --   -0.45389  -0.44977  -0.43347  -0.42203  -0.40548
 Alpha  occ. eigenvalues --   -0.39290  -0.38674  -0.38040  -0.36150  -0.35687
 Alpha  occ. eigenvalues --   -0.34775  -0.34534  -0.34020  -0.30599  -0.30369
 Alpha  occ. eigenvalues --   -0.28910  -0.23205
 Alpha virt. eigenvalues --    0.00177   0.01390   0.01891   0.02496   0.03524
 Alpha virt. eigenvalues --    0.04239   0.04603   0.05097   0.05462   0.06771
 Alpha virt. eigenvalues --    0.07591   0.08148   0.08353   0.09117   0.09567

 Mulliken atomic charges:
              1
     1  C   -0.506610
     2  C    0.051060
     3  N   -0.193252
     4  C   -0.268586
     5  C   -0.232009
     6  C    0.089843
     7  C   -0.276373
     8  C    0.225462
     9  H    0.179351
    10  H    0.163094
    11  H    0.167240
    12  H    0.164884
    13  H    0.164819
    14  H    0.169603
    15  H    0.181072
    16  H    0.171211
    17  H    0.182421
    18  H    0.173918
    19  O   -0.644787
    20  H    0.407233
    21  O   -0.538496
    22  H    0.388350
    23  C   -0.376563
    24  H    0.168477
    25  H    0.162141
    26  O   -0.548134
    27  H    0.374630
 Sum of Mulliken atomic charges =   0.00000

 Dipole moment (field-independent basis, Debye):
    X=             -5.9003    Y=             -0.2716    Z=              1.4956  Tot=              6.0929
 Quadrupole moment (field-independent basis, Debye-Ang):
   XX=            -75.8314   YY=            -73.8843   ZZ=            -73.0664
   XY=             -3.8899   XZ=              3.5053   YZ=             -0.2409

 Normal termination of Gaussian 09 at Fri May 17 12:15:15 2024.
