 Gaussian 09, Revision C.01,
 Gaussian 09:  AM64L-G09RevC.01 23-Sep-2011

 ------------------------------------------------
 # mpw1pw91/6-31+G** nmr scrf=(pcm,solvent=water)
 ------------------------------------------------

 99/9=1/99;
 -------
 comment
 -------
 Charge =  0 Multiplicity = 1

                         Standard orientation:
 ---------------------------------------------------------------------
 Center     Atomic      Atomic             Coordinates (Angstroms)
 Number     Number       Type             X           Y           Z
 ---------------------------------------------------------------------
      1          6           0        2.170544    0.072187   -0.445945
      2          6           0        0.708733    0.032491   -0.919359
      3          7           0        0.061742   -1.098055   -0.173732
      4          6           0        1.130025   -1.840096    0.545030
      5          6           0        2.440107   -1.403043   -0.119719
      6          6           0       -1.016808   -0.551682    0.694865
      7          6           0       -0.820175    0.971847    0.724183
      8          6           0       -0.164548    1.274929   -0.629429
      9          1           0        2.846591    0.481660   -1.203259
     10          1           0        2.263596    0.679492    0.459538
     11          1           0        0.690654   -0.181218   -1.995595
     12          1           0        0.968327   -2.923074    0.484388
     13          1           0        1.142817   -1.571996    1.611227
     14          1           0        2.611641   -1.971679   -1.041964
     15          1           0        3.305114   -1.553044    0.533940
     16          1           0       -0.909853   -0.940967    1.714824
     17          1           0       -1.766217    1.514672    0.851431
     18          1           0       -0.952842    1.351754   -1.386412
     19          8           0        0.541844    2.512592   -0.535347
     20          1           0        1.068772    2.620403   -1.344637
     21          8           0        0.071001    1.301816    1.798887
     22          1           0        0.548669    2.100283    1.508157
     23          6           0       -2.407355   -0.976353    0.214578
     24          1           0       -2.497818   -2.069000    0.291703
     25          1           0       -3.172285   -0.531666    0.859919
     26          8           0       -2.712869   -0.548432   -1.116786
     27          1           0       -2.022307   -0.928724   -1.686388
 ---------------------------------------------------------------------

 SCF Done:  E(RmPW1PW91) =  -594.195406619     A.U. after   13 cycles

      1  C    Isotropic =   165.6053   Anisotropy =    17.2143

      2  C    Isotropic =   124.5006   Anisotropy =    55.1555

      3  N    Isotropic =   199.2923   Anisotropy =    76.7102

      4  C    Isotropic =   136.1088   Anisotropy =    64.7954

      5  C    Isotropic =   165.9058   Anisotropy =    22.6884

      6  C    Isotropic =   119.0365   Anisotropy =    31.9509

      7  C    Isotropic =   114.8020   Anisotropy =    23.6085

      8  C    Isotropic =   119.9723   Anisotropy =    50.6229

      9  H    Isotropic =    30.0530   Anisotropy =    10.4628

     10  H    Isotropic =    29.4841   Anisotropy =     6.3731

     11  H    Isotropic =    27.8888   Anisotropy =     7.6893

     12  H    Isotropic =    28.1190   Anisotropy =     9.8865

     13  H    Isotropic =    28.5950   Anisotropy =     7.8600

     14  H    Isotropic =    29.7321   Anisotropy =    11.1043

     15  H    Isotropic =    29.5336   Anisotropy =    11.5657

     16  H    Isotropic =    28.6643   Anisotropy =     5.0420

     17  H    Isotropic =    27.3013   Anisotropy =     7.2277

     18  H    Isotropic =    26.8773   Anisotropy =     5.3158

     19  O    Isotropic =   306.4688   Anisotropy =    48.0516

     20  H    Isotropic =    29.8913   Anisotropy =    18.9990

     21  O    Isotropic =   302.9808   Anisotropy =    44.1630

     22  H    Isotropic =    28.6435   Anisotropy =    16.2032

     23  C    Isotropic =   127.2904   Anisotropy =    36.8136

     24  H    Isotropic =    27.8668   Anisotropy =     8.0669

     25  H    Isotropic =    28.0440   Anisotropy =     7.2026

     26  O    Isotropic =   314.5957   Anisotropy =    38.9819

     27  H    Isotropic =    30.1326   Anisotropy =    13.5607

 The electronic state is 1-A.
 Alpha  occ. eigenvalues --  -19.26711 -19.25467 -19.25117 -14.41365 -10.30540
 Alpha  occ. eigenvalues --  -10.30285 -10.29368 -10.28060 -10.27754 -10.26836
 Alpha  occ. eigenvalues --  -10.24561 -10.24334  -1.07937  -1.05655  -1.04718
 Alpha  occ. eigenvalues --   -0.96020  -0.82746  -0.78905  -0.75434  -0.71828
 Alpha  occ. eigenvalues --   -0.66679  -0.60982  -0.60462  -0.59025  -0.54082
 Alpha  occ. eigenvalues --   -0.53367  -0.51919  -0.50784  -0.49482  -0.46663
 Alpha  occ. eigenvalues --   -0.45945  -0.44648  -0.44176  -0.41364  -0.40782
 Alpha  occ. eigenvalues --   -0.39568  -0.38469  -0.37098  -0.36400  -0.35869
 Alpha  occ. eigenvalues --   -0.35503  -0.34301  -0.33105  -0.30815  -0.29688
 Alpha  occ. eigenvalues --   -0.28959  -0.23107
 Alpha virt. eigenvalues --    0.00056   0.01400   0.02073   0.02432   0.03491
 Alpha virt. eigenvalues --    0.04309   0.04718   0.05029   0.05362   0.06863
 Alpha virt. eigenvalues --    0.07820   0.08569   0.08850   0.08996   0.09507

 Mulliken atomic charges:
              1
     1  C   -0.362211
     2  C   -0.065153
     3  N   -0.199607
     4  C   -0.161822
     5  C   -0.444342
     6  C    0.130654
     7  C   -0.039456
     8  C   -0.128702
     9  H    0.174325
    10  H    0.183039
    11  H    0.171430
    12  H    0.159499
    13  H    0.156298
    14  H    0.176433
    15  H    0.177790
    16  H    0.168164
    17  H    0.157631
    18  H    0.185194
    19  O   -0.578007
    20  H    0.393026
    21  O   -0.561011
    22  H    0.386566
    23  C   -0.237316
    24  H    0.158576
    25  H    0.164484
    26  O   -0.549095
    27  H    0.383614
 Sum of Mulliken atomic charges =   0.00000

 Dipole moment (field-independent basis, Debye):
    X=              2.9701    Y=             -0.6254    Z=             -1.9466  Tot=              3.6058
 Quadrupole moment (field-independent basis, Debye-Ang):
   XX=            -75.9890   YY=            -72.7855   ZZ=            -72.8684
   XY=              2.0175   XZ=             -7.0033   YZ=             -5.7387

 Normal termination of Gaussian 09 at Fri May 17 12:19:26 2024.
