 Gaussian 09, Revision C.01,
 Gaussian 09:  AM64L-G09RevC.01 23-Sep-2011

 ------------------------------------------------
 # mpw1pw91/6-31+G** nmr scrf=(pcm,solvent=water)
 ------------------------------------------------

 99/9=1/99;
 -------
 comment
 -------
 Charge =  0 Multiplicity = 1

                         Standard orientation:
 ---------------------------------------------------------------------
 Center     Atomic      Atomic             Coordinates (Angstroms)
 Number     Number       Type             X           Y           Z
 ---------------------------------------------------------------------
      1          6           0       -2.652375    0.165178    0.190411
      2          6           0       -1.301249    0.336532    0.918959
      3          7           0       -0.503437   -0.920726    0.647385
      4          6           0       -1.350014   -1.803517   -0.189240
      5          6           0       -2.365720   -0.891885   -0.887693
      6          6           0        0.752260   -0.508094   -0.003044
      7          6           0        0.983754    0.908827    0.535487
      8          6           0       -0.420339    1.516719    0.467113
      9          1           0       -3.403193   -0.209965    0.895027
     10          1           0       -3.023156    1.108396   -0.219578
     11          1           0       -1.460481    0.436406    1.998495
     12          1           0       -1.874759   -2.523359    0.452696
     13          1           0       -0.728067   -2.380054   -0.880540
     14          1           0       -3.263585   -1.428727   -1.211673
     15          1           0       -1.913951   -0.422254   -1.768321
     16          1           0        0.642902   -0.430003   -1.098995
     17          1           0        1.310625    0.859349    1.584306
     18          1           0       -0.537114    2.383588    1.130724
     19          8           0       -0.702626    1.906516   -0.881609
     20          1           0        0.161649    2.166069   -1.254650
     21          8           0        1.908154    1.670727   -0.237229
     22          1           0        2.630238    1.045293   -0.450111
     23          6           0        1.924991   -1.440789    0.281837
     24          1           0        2.123830   -1.482158    1.357432
     25          1           0        1.719118   -2.459942   -0.069527
     26          8           0        3.129002   -0.934392   -0.329850
     27          1           0        3.035915   -1.058193   -1.290470
 ---------------------------------------------------------------------

 SCF Done:  E(RmPW1PW91) =  -594.200006509     A.U. after   13 cycles

      1  C    Isotropic =   167.6030   Anisotropy =    23.6954

      2  C    Isotropic =   127.5598   Anisotropy =    53.7604

      3  N    Isotropic =   196.1237   Anisotropy =    70.5499

      4  C    Isotropic =   141.5974   Anisotropy =    54.3457

      5  C    Isotropic =   168.5007   Anisotropy =    24.1110

      6  C    Isotropic =   127.2286   Anisotropy =    54.3261

      7  C    Isotropic =   114.9641   Anisotropy =    43.0513

      8  C    Isotropic =   121.7945   Anisotropy =    24.0044

      9  H    Isotropic =    29.9257   Anisotropy =    12.5751

     10  H    Isotropic =    29.3632   Anisotropy =     9.1104

     11  H    Isotropic =    27.9819   Anisotropy =     9.2179

     12  H    Isotropic =    28.9292   Anisotropy =    12.1479

     13  H    Isotropic =    28.8457   Anisotropy =     8.5575

     14  H    Isotropic =    30.0984   Anisotropy =    12.7353

     15  H    Isotropic =    29.6975   Anisotropy =     7.6495

     16  H    Isotropic =    28.8637   Anisotropy =     4.3748

     17  H    Isotropic =    27.4561   Anisotropy =     4.4709

     18  H    Isotropic =    27.5419   Anisotropy =     9.0344

     19  O    Isotropic =   314.1502   Anisotropy =    46.4140

     20  H    Isotropic =    28.6781   Anisotropy =    18.2013

     21  O    Isotropic =   296.3502   Anisotropy =    35.9730

     22  H    Isotropic =    27.6280   Anisotropy =    21.5314

     23  C    Isotropic =   125.4989   Anisotropy =    59.6024

     24  H    Isotropic =    27.9966   Anisotropy =     4.3785

     25  H    Isotropic =    27.5021   Anisotropy =     5.0489

     26  O    Isotropic =   310.9747   Anisotropy =    62.1333

     27  H    Isotropic =    30.4442   Anisotropy =    16.9622

 The electronic state is 1-A.
 Alpha  occ. eigenvalues --  -19.27126 -19.26068 -19.24938 -14.41493 -10.30590
 Alpha  occ. eigenvalues --  -10.30188 -10.30077 -10.28120 -10.27862 -10.26814
 Alpha  occ. eigenvalues --  -10.24444 -10.24098  -1.08067  -1.06596  -1.04474
 Alpha  occ. eigenvalues --   -0.96455  -0.82634  -0.79324  -0.75221  -0.71589
 Alpha  occ. eigenvalues --   -0.66939  -0.61967  -0.60080  -0.58009  -0.54945
 Alpha  occ. eigenvalues --   -0.54109  -0.51791  -0.50304  -0.49850  -0.48409
 Alpha  occ. eigenvalues --   -0.45860  -0.43789  -0.43604  -0.42158  -0.40868
 Alpha  occ. eigenvalues --   -0.39406  -0.38520  -0.38106  -0.36934  -0.35290
 Alpha  occ. eigenvalues --   -0.35080  -0.34205  -0.33135  -0.30922  -0.30542
 Alpha  occ. eigenvalues --   -0.29031  -0.23493
 Alpha virt. eigenvalues --    0.00638   0.01107   0.02010   0.02333   0.03955
 Alpha virt. eigenvalues --    0.04217   0.04664   0.04770   0.05502   0.07352
 Alpha virt. eigenvalues --    0.07584   0.07831   0.08700   0.08861   0.09548

 Mulliken atomic charges:
              1
     1  C   -0.560105
     2  C    0.173574
     3  N   -0.133390
     4  C   -0.237842
     5  C   -0.221509
     6  C   -0.513596
     7  C   -0.054051
     8  C    0.115123
     9  H    0.174941
    10  H    0.180723
    11  H    0.166785
    12  H    0.163742
    13  H    0.163950
    14  H    0.168598
    15  H    0.180870
    16  H    0.181339
    17  H    0.176300
    18  H    0.157181
    19  O   -0.573769
    20  H    0.389167
    21  O   -0.592866
    22  H    0.411694
    23  C   -0.063000
    24  H    0.178838
    25  H    0.168268
    26  O   -0.605129
    27  H    0.404165
 Sum of Mulliken atomic charges =   0.00000

 Dipole moment (field-independent basis, Debye):
    X=             -0.2045    Y=             -2.7077    Z=             -0.9902  Tot=              2.8903
 Quadrupole moment (field-independent basis, Debye-Ang):
   XX=            -76.3263   YY=            -76.7377   ZZ=            -69.7911
   XY=             -0.3540   XZ=             -6.4879   YZ=              6.1653

 Normal termination of Gaussian 09 at Fri May 17 12:38:26 2024.
