 Gaussian 09, Revision C.01,
 Gaussian 09:  AM64L-G09RevC.01 23-Sep-2011

 ------------------------------------------------
 # mpw1pw91/6-31+G** nmr scrf=(pcm,solvent=water)
 ------------------------------------------------

 99/9=1/99;
 -------
 comment
 -------
 Charge =  0 Multiplicity = 1

                         Standard orientation:
 ---------------------------------------------------------------------
 Center     Atomic      Atomic             Coordinates (Angstroms)
 Number     Number       Type             X           Y           Z
 ---------------------------------------------------------------------
      1          6           0        2.151330   -0.410784   -0.449270
      2          6           0        0.743415   -0.086618   -1.037070
      3          7           0       -0.223611   -1.051337   -0.435583
      4          6           0        0.596251   -2.190432    0.024671
      5          6           0        1.912886   -1.579082    0.529991
      6          6           0       -0.972894   -0.361937    0.665110
      7          6           0       -0.513860    1.109214    0.663143
      8          6           0        0.137713    1.297554   -0.714970
      9          1           0        2.823563   -0.714873   -1.258475
     10          1           0        2.607835    0.455425    0.037087
     11          1           0        0.768401   -0.228485   -2.122452
     12          1           0        0.792343   -2.852573   -0.828737
     13          1           0        0.053473   -2.771601    0.775855
     14          1           0        2.735737   -2.301142    0.541504
     15          1           0        1.782029   -1.203459    1.550870
     16          1           0       -0.734980   -0.800700    1.642170
     17          1           0       -1.344669    1.804369    0.824941
     18          1           0       -0.652691    1.504863   -1.442282
     19          8           0        1.042183    2.391108   -0.762400
     20          1           0        1.435882    2.437231    0.128431
     21          8           0        0.514773    1.363566    1.633268
     22          1           0        0.085621    1.456560    2.499266
     23          6           0       -2.475309   -0.532200    0.423213
     24          1           0       -2.752677   -1.585393    0.579839
     25          1           0       -3.051488    0.074829    1.129314
     26          8           0       -2.841981   -0.110579   -0.892198
     27          1           0       -2.180097   -0.542744   -1.466519
 ---------------------------------------------------------------------

 SCF Done:  E(RmPW1PW91) =  -594.197973572     A.U. after   13 cycles

      1  C    Isotropic =   168.8555   Anisotropy =    25.5550

      2  C    Isotropic =   125.5209   Anisotropy =    64.3583

      3  N    Isotropic =   194.4309   Anisotropy =    63.9738

      4  C    Isotropic =   139.1516   Anisotropy =    57.4430

      5  C    Isotropic =   170.1158   Anisotropy =    21.1806

      6  C    Isotropic =   119.1495   Anisotropy =    28.1059

      7  C    Isotropic =   115.8612   Anisotropy =    23.4178

      8  C    Isotropic =   120.1444   Anisotropy =    55.3579

      9  H    Isotropic =    30.0216   Anisotropy =    12.3557

     10  H    Isotropic =    29.6243   Anisotropy =     6.9895

     11  H    Isotropic =    27.9464   Anisotropy =     8.5598

     12  H    Isotropic =    28.6967   Anisotropy =    11.9387

     13  H    Isotropic =    28.6383   Anisotropy =     9.8875

     14  H    Isotropic =    30.0087   Anisotropy =    12.4433

     15  H    Isotropic =    29.7008   Anisotropy =     8.6002

     16  H    Isotropic =    28.8850   Anisotropy =     4.6561

     17  H    Isotropic =    27.5228   Anisotropy =     6.8313

     18  H    Isotropic =    27.1444   Anisotropy =     4.9214

     19  O    Isotropic =   310.1007   Anisotropy =    37.0203

     20  H    Isotropic =    28.2209   Anisotropy =    14.6015

     21  O    Isotropic =   293.1387   Anisotropy =    40.2373

     22  H    Isotropic =    29.6638   Anisotropy =    20.3296

     23  C    Isotropic =   130.1186   Anisotropy =    35.7171

     24  H    Isotropic =    28.0837   Anisotropy =     8.4183

     25  H    Isotropic =    28.1333   Anisotropy =     7.0693

     26  O    Isotropic =   320.4312   Anisotropy =    41.5680

     27  H    Isotropic =    29.0195   Anisotropy =    14.8518

 The electronic state is 1-A.
 Alpha  occ. eigenvalues --  -19.26581 -19.25482 -19.25020 -14.41898 -10.30824
 Alpha  occ. eigenvalues --  -10.30348 -10.29326 -10.28273 -10.27526 -10.26984
 Alpha  occ. eigenvalues --  -10.24200 -10.24123  -1.08073  -1.05428  -1.04979
 Alpha  occ. eigenvalues --   -0.96527  -0.82160  -0.78792  -0.75609  -0.71531
 Alpha  occ. eigenvalues --   -0.66701  -0.62429  -0.59668  -0.57857  -0.56224
 Alpha  occ. eigenvalues --   -0.52998  -0.52551  -0.49145  -0.48317  -0.46631
 Alpha  occ. eigenvalues --   -0.45944  -0.45264  -0.44373  -0.42253  -0.40963
 Alpha  occ. eigenvalues --   -0.39794  -0.38757  -0.36961  -0.36439  -0.35353
 Alpha  occ. eigenvalues --   -0.34787  -0.34016  -0.32786  -0.31350  -0.29538
 Alpha  occ. eigenvalues --   -0.29022  -0.24111
 Alpha virt. eigenvalues --    0.00172   0.01470   0.01892   0.02309   0.03945
 Alpha virt. eigenvalues --    0.04222   0.04604   0.04800   0.05032   0.07147
 Alpha virt. eigenvalues --    0.07574   0.08168   0.08546   0.08844   0.09930

 Mulliken atomic charges:
              1
     1  C   -0.456537
     2  C    0.190505
     3  N   -0.239404
     4  C   -0.316038
     5  C   -0.223146
     6  C    0.097588
     7  C    0.131191
     8  C   -0.362053
     9  H    0.170606
    10  H    0.166582
    11  H    0.170906
    12  H    0.167876
    13  H    0.168138
    14  H    0.169436
    15  H    0.177913
    16  H    0.174331
    17  H    0.174041
    18  H    0.185748
    19  O   -0.530302
    20  H    0.384327
    21  O   -0.627391
    22  H    0.403922
    23  C   -0.342616
    24  H    0.154346
    25  H    0.165119
    26  O   -0.542822
    27  H    0.387734
 Sum of Mulliken atomic charges =   0.00000

 Dipole moment (field-independent basis, Debye):
    X=              0.7583    Y=             -2.4913    Z=              4.2378  Tot=              4.9740
 Quadrupole moment (field-independent basis, Debye-Ang):
   XX=            -82.0310   YY=            -76.4855   ZZ=            -66.7863
   XY=             -3.5998   XZ=             -5.9600   YZ=              6.0047

 Normal termination of Gaussian 09 at Fri May 17 12:45:09 2024.
