 Gaussian 09, Revision C.01,
 Gaussian 09:  AM64L-G09RevC.01 23-Sep-2011

 ------------------------------------------------
 # mpw1pw91/6-31+G** nmr scrf=(pcm,solvent=water)
 ------------------------------------------------

 99/9=1/99;
 -------
 comment
 -------
 Charge =  0 Multiplicity = 1

                         Standard orientation:
 ---------------------------------------------------------------------
 Center     Atomic      Atomic             Coordinates (Angstroms)
 Number     Number       Type             X           Y           Z
 ---------------------------------------------------------------------
      1          6           0        2.171114   -0.340870   -0.407085
      2          6           0        0.768170   -0.036626   -1.024217
      3          7           0       -0.183531   -1.049903   -0.487135
      4          6           0        0.658473   -2.186386   -0.061464
      5          6           0        1.942691   -1.562445    0.507013
      6          6           0       -0.960984   -0.431779    0.637607
      7          6           0       -0.557864    1.050777    0.694847
      8          6           0        0.114140    1.306145   -0.668199
      9          1           0        2.877163   -0.580725   -1.208972
     10          1           0        2.579749    0.511669    0.139424
     11          1           0        0.828861   -0.137843   -2.112567
     12          1           0        0.893935   -2.802751   -0.938872
     13          1           0        0.114212   -2.817150    0.647219
     14          1           0        2.786659   -2.259793    0.508710
     15          1           0        1.771985   -1.238541    1.539621
     16          1           0       -0.706638   -0.899314    1.597440
     17          1           0       -1.423798    1.708128    0.849107
     18          1           0       -0.659178    1.537346   -1.408602
     19          8           0        1.074222    2.362008   -0.614423
     20          1           0        0.584325    3.201509   -0.647431
     21          8           0        0.392148    1.259107    1.745953
     22          1           0        0.986662    1.955986    1.404734
     23          6           0       -2.455894   -0.643055    0.401824
     24          1           0       -2.675862   -1.720904    0.411299
     25          1           0       -3.037161   -0.172061    1.201254
     26          8           0       -2.895085   -0.054590   -0.825686
     27          1           0       -2.285555   -0.403007   -1.501108
 ---------------------------------------------------------------------

 SCF Done:  E(RmPW1PW91) =  -594.197495062     A.U. after   13 cycles

      1  C    Isotropic =   168.8845   Anisotropy =    25.7189

      2  C    Isotropic =   126.6926   Anisotropy =    64.7984

      3  N    Isotropic =   192.3087   Anisotropy =    63.6794

      4  C    Isotropic =   139.5113   Anisotropy =    56.8284

      5  C    Isotropic =   170.4633   Anisotropy =    21.9329

      6  C    Isotropic =   119.8530   Anisotropy =    30.3052

      7  C    Isotropic =   117.5277   Anisotropy =    21.6768

      8  C    Isotropic =   119.3862   Anisotropy =    52.5608

      9  H    Isotropic =    30.0574   Anisotropy =    12.3377

     10  H    Isotropic =    29.4442   Anisotropy =     6.8366

     11  H    Isotropic =    27.9124   Anisotropy =     8.8865

     12  H    Isotropic =    28.7340   Anisotropy =    12.0564

     13  H    Isotropic =    28.6457   Anisotropy =     9.8919

     14  H    Isotropic =    30.0442   Anisotropy =    12.5114

     15  H    Isotropic =    29.6641   Anisotropy =     8.5871

     16  H    Isotropic =    28.7459   Anisotropy =     4.7506

     17  H    Isotropic =    27.6757   Anisotropy =     7.2509

     18  H    Isotropic =    27.0183   Anisotropy =     4.4703

     19  O    Isotropic =   308.6444   Anisotropy =    98.3420

     20  H    Isotropic =    29.9395   Anisotropy =    22.5767

     21  O    Isotropic =   304.2467   Anisotropy =    54.5090

     22  H    Isotropic =    28.3966   Anisotropy =    16.5491

     23  C    Isotropic =   128.9192   Anisotropy =    34.6673

     24  H    Isotropic =    28.0093   Anisotropy =     7.9974

     25  H    Isotropic =    28.0843   Anisotropy =     7.3203

     26  O    Isotropic =   320.7423   Anisotropy =    38.9595

     27  H    Isotropic =    29.5288   Anisotropy =    14.0860

 The electronic state is 1-A.
 Alpha  occ. eigenvalues --  -19.27178 -19.25235 -19.25006 -14.41748 -10.30833
 Alpha  occ. eigenvalues --  -10.30152 -10.29287 -10.28098 -10.27833 -10.26901
 Alpha  occ. eigenvalues --  -10.24147 -10.24049  -1.08308  -1.05565  -1.04723
 Alpha  occ. eigenvalues --   -0.96536  -0.82014  -0.79065  -0.75619  -0.71185
 Alpha  occ. eigenvalues --   -0.66892  -0.61945  -0.59893  -0.58046  -0.55372
 Alpha  occ. eigenvalues --   -0.52598  -0.51496  -0.50400  -0.49745  -0.47782
 Alpha  occ. eigenvalues --   -0.46073  -0.45403  -0.42798  -0.41667  -0.40397
 Alpha  occ. eigenvalues --   -0.40151  -0.37900  -0.37369  -0.36730  -0.35414
 Alpha  occ. eigenvalues --   -0.34515  -0.33892  -0.33447  -0.31042  -0.29681
 Alpha  occ. eigenvalues --   -0.28880  -0.24107
 Alpha virt. eigenvalues --    0.00017   0.01385   0.01922   0.02427   0.03829
 Alpha virt. eigenvalues --    0.04201   0.04569   0.04857   0.05107   0.07202
 Alpha virt. eigenvalues --    0.07863   0.08097   0.08607   0.08826   0.09807

 Mulliken atomic charges:
              1
     1  C   -0.463642
     2  C    0.078698
     3  N   -0.221926
     4  C   -0.314315
     5  C   -0.196603
     6  C    0.141320
     7  C    0.056951
     8  C   -0.258844
     9  H    0.169839
    10  H    0.178967
    11  H    0.174245
    12  H    0.166958
    13  H    0.168100
    14  H    0.168771
    15  H    0.178724
    16  H    0.177691
    17  H    0.164143
    18  H    0.184019
    19  O   -0.607630
    20  H    0.405719
    21  O   -0.534517
    22  H    0.383607
    23  C   -0.360729
    24  H    0.154746
    25  H    0.166215
    26  O   -0.544602
    27  H    0.384095
 Sum of Mulliken atomic charges =   0.00000

 Dipole moment (field-independent basis, Debye):
    X=              1.1730    Y=              0.3123    Z=             -0.7500  Tot=              1.4269
 Quadrupole moment (field-independent basis, Debye-Ang):
   XX=            -83.0852   YY=            -62.2937   ZZ=            -76.0834
   XY=             -1.8134   XZ=             -4.0561   YZ=             -2.7491

 Normal termination of Gaussian 09 at Fri May 17 12:23:17 2024.
