 Gaussian 09, Revision C.01,
 Gaussian 09:  AM64L-G09RevC.01 23-Sep-2011

 ------------------------------------------------
 # mpw1pw91/6-31+G** nmr scrf=(pcm,solvent=water)
 ------------------------------------------------

 99/9=1/99;
 -------
 comment
 -------
 Charge =  0 Multiplicity = 1

                         Standard orientation:
 ---------------------------------------------------------------------
 Center     Atomic      Atomic             Coordinates (Angstroms)
 Number     Number       Type             X           Y           Z
 ---------------------------------------------------------------------
      1          6           0        2.149277   -0.007081   -0.600901
      2          6           0        0.649641   -0.043421   -0.941452
      3          7           0        0.045929   -1.096588   -0.053923
      4          6           0        1.142832   -1.700660    0.742745
      5          6           0        2.406462   -1.426164   -0.073434
      6          6           0       -1.046591   -0.483451    0.743435
      7          6           0       -0.820287    1.036503    0.682169
      8          6           0       -0.166884    1.257303   -0.692130
      9          1           0        2.765308    0.255608   -1.466265
     10          1           0        2.353076    0.723535    0.189000
     11          1           0        0.529087   -0.343593   -1.989549
     12          1           0        0.964788   -2.770164    0.906665
     13          1           0        1.226389   -1.226488    1.731862
     14          1           0        2.485501   -2.135822   -0.906195
     15          1           0        3.316579   -1.508092    0.529070
     16          1           0       -0.983138   -0.817588    1.785931
     17          1           0       -1.745776    1.611339    0.803490
     18          1           0       -0.956260    1.334205   -1.442724
     19          8           0        0.580729    2.466523   -0.766035
     20          1           0        0.965989    2.587997    0.121015
     21          8           0        0.148617    1.467282    1.653058
     22          1           0       -0.284348    1.464898    2.522361
     23          6           0       -2.414535   -0.929833    0.216188
     24          1           0       -2.553726   -1.996247    0.443946
     25          1           0       -3.215691   -0.372116    0.712375
     26          8           0       -2.573602   -0.705273   -1.188592
     27          1           0       -1.834727   -1.178780   -1.610692
 ---------------------------------------------------------------------

 SCF Done:  E(RmPW1PW91) =  -594.196291347     A.U. after   13 cycles

      1  C    Isotropic =   165.9294   Anisotropy =    18.6081

      2  C    Isotropic =   125.2775   Anisotropy =    55.5440

      3  N    Isotropic =   200.2595   Anisotropy =    73.6908

      4  C    Isotropic =   137.0724   Anisotropy =    60.6378

      5  C    Isotropic =   166.3928   Anisotropy =    20.0176

      6  C    Isotropic =   120.9807   Anisotropy =    26.5863

      7  C    Isotropic =   114.3280   Anisotropy =    25.3733

      8  C    Isotropic =   119.9620   Anisotropy =    52.3279

      9  H    Isotropic =    29.9543   Anisotropy =    10.8199

     10  H    Isotropic =    29.6794   Anisotropy =     6.3838

     11  H    Isotropic =    27.8923   Anisotropy =     7.6026

     12  H    Isotropic =    28.2382   Anisotropy =     9.8989

     13  H    Isotropic =    28.5180   Anisotropy =     7.8099

     14  H    Isotropic =    29.6814   Anisotropy =    11.0487

     15  H    Isotropic =    29.5924   Anisotropy =    11.6433

     16  H    Isotropic =    28.7795   Anisotropy =     5.2864

     17  H    Isotropic =    27.3944   Anisotropy =     7.0105

     18  H    Isotropic =    26.9462   Anisotropy =     5.0265

     19  O    Isotropic =   316.0883   Anisotropy =    28.0952

     20  H    Isotropic =    28.3999   Anisotropy =    14.8562

     21  O    Isotropic =   290.6366   Anisotropy =    48.5987

     22  H    Isotropic =    29.7806   Anisotropy =    19.6903

     23  C    Isotropic =   128.2202   Anisotropy =    38.4242

     24  H    Isotropic =    27.8900   Anisotropy =     8.5471

     25  H    Isotropic =    28.1273   Anisotropy =     7.1293

     26  O    Isotropic =   315.2252   Anisotropy =    38.8584

     27  H    Isotropic =    29.8627   Anisotropy =    13.5086

 The electronic state is 1-A.
 Alpha  occ. eigenvalues --  -19.26498 -19.25375 -19.25304 -14.41323 -10.30634
 Alpha  occ. eigenvalues --  -10.30112 -10.29441 -10.28123 -10.27484 -10.26767
 Alpha  occ. eigenvalues --  -10.24488 -10.24331  -1.07908  -1.05604  -1.04767
 Alpha  occ. eigenvalues --   -0.95999  -0.82763  -0.78641  -0.75302  -0.71819
 Alpha  occ. eigenvalues --   -0.66448  -0.61751  -0.60379  -0.57657  -0.55868
 Alpha  occ. eigenvalues --   -0.53577  -0.52152  -0.50020  -0.47589  -0.46704
 Alpha  occ. eigenvalues --   -0.45925  -0.44742  -0.44548  -0.42449  -0.40073
 Alpha  occ. eigenvalues --   -0.39638  -0.38834  -0.36902  -0.36163  -0.35623
 Alpha  occ. eigenvalues --   -0.35207  -0.34212  -0.33174  -0.31294  -0.29583
 Alpha  occ. eigenvalues --   -0.29208  -0.22928
 Alpha virt. eigenvalues --    0.00214   0.01301   0.02033   0.02316   0.03949
 Alpha virt. eigenvalues --    0.04227   0.04635   0.04944   0.05356   0.06835
 Alpha virt. eigenvalues --    0.07729   0.08568   0.08881   0.09096   0.09175

 Mulliken atomic charges:
              1
     1  C   -0.419416
     2  C    0.086318
     3  N   -0.204575
     4  C   -0.179169
     5  C   -0.426583
     6  C    0.108930
     7  C   -0.018174
     8  C   -0.213196
     9  H    0.174284
    10  H    0.168836
    11  H    0.164490
    12  H    0.159741
    13  H    0.160152
    14  H    0.175851
    15  H    0.176113
    16  H    0.167422
    17  H    0.168319
    18  H    0.189378
    19  O   -0.532135
    20  H    0.387197
    21  O   -0.639209
    22  H    0.405145
    23  C   -0.225386
    24  H    0.159201
    25  H    0.163716
    26  O   -0.541933
    27  H    0.384683
 Sum of Mulliken atomic charges =   0.00000

 Dipole moment (field-independent basis, Debye):
    X=              0.4965    Y=             -2.0151    Z=              4.3608  Tot=              4.8295
 Quadrupole moment (field-independent basis, Debye-Ang):
   XX=            -76.0706   YY=            -79.2218   ZZ=            -67.3694
   XY=             -3.7203   XZ=             -7.0614   YZ=              5.2302

 Normal termination of Gaussian 09 at Fri May 17 12:25:36 2024.
