 Gaussian 09, Revision C.01,
 Gaussian 09:  AM64L-G09RevC.01 23-Sep-2011

 ------------------------------------------------
 # mpw1pw91/6-31+G** nmr scrf=(pcm,solvent=water)
 ------------------------------------------------

 99/9=1/99;
 -------
 comment
 -------
 Charge =  0 Multiplicity = 1

                         Standard orientation:
 ---------------------------------------------------------------------
 Center     Atomic      Atomic             Coordinates (Angstroms)
 Number     Number       Type             X           Y           Z
 ---------------------------------------------------------------------
      1          6           0        2.171925    0.020799   -0.509319
      2          6           0        0.694955   -0.030684   -0.932632
      3          7           0        0.057211   -1.090729   -0.078154
      4          6           0        1.133621   -1.751371    0.706083
      5          6           0        2.426280   -1.418856   -0.043899
      6          6           0       -1.032923   -0.478899    0.730130
      7          6           0       -0.858161    1.046144    0.627118
      8          6           0       -0.146375    1.257020   -0.727350
      9          1           0        2.828270    0.341820   -1.323787
     10          1           0        2.314139    0.714511    0.328062
     11          1           0        0.639047   -0.335248   -1.984953
     12          1           0        0.956902   -2.830260    0.788918
     13          1           0        1.180705   -1.350282    1.730196
     14          1           0        2.547515   -2.082612   -0.908858
     15          1           0        3.312277   -1.523462    0.590030
     16          1           0       -0.943302   -0.783444    1.780046
     17          1           0       -1.808317    1.583898    0.672062
     18          1           0       -0.902095    1.323947   -1.514259
     19          8           0        0.595996    2.470380   -0.757974
     20          1           0        0.857966    2.618410    0.172105
     21          8           0       -0.069672    1.605401    1.695326
     22          1           0        0.652421    0.990725    1.909430
     23          6           0       -2.399970   -0.966245    0.236069
     24          1           0       -2.509984   -2.033279    0.476888
     25          1           0       -3.205169   -0.422760    0.740891
     26          8           0       -2.580877   -0.756669   -1.167215
     27          1           0       -1.820544   -1.197207   -1.587997
 ---------------------------------------------------------------------

 SCF Done:  E(RmPW1PW91) =  -594.194371110     A.U. after   13 cycles

      1  C    Isotropic =   164.4224   Anisotropy =    17.8382

      2  C    Isotropic =   124.9365   Anisotropy =    55.9574

      3  N    Isotropic =   202.8234   Anisotropy =    72.6651

      4  C    Isotropic =   135.7371   Anisotropy =    60.8099

      5  C    Isotropic =   166.2560   Anisotropy =    21.4353

      6  C    Isotropic =   120.0954   Anisotropy =    29.4070

      7  C    Isotropic =   112.7346   Anisotropy =    26.5958

      8  C    Isotropic =   121.0853   Anisotropy =    50.2596

      9  H    Isotropic =    29.7951   Anisotropy =    10.5691

     10  H    Isotropic =    30.1112   Anisotropy =     6.2676

     11  H    Isotropic =    27.8623   Anisotropy =     7.6459

     12  H    Isotropic =    28.0578   Anisotropy =     9.7459

     13  H    Isotropic =    28.8371   Anisotropy =     8.3089

     14  H    Isotropic =    29.6734   Anisotropy =    11.0176

     15  H    Isotropic =    29.5562   Anisotropy =    11.7329

     16  H    Isotropic =    28.6535   Anisotropy =     4.9645

     17  H    Isotropic =    27.6109   Anisotropy =     7.0927

     18  H    Isotropic =    27.1201   Anisotropy =     5.3251

     19  O    Isotropic =   312.1876   Anisotropy =    28.5101

     20  H    Isotropic =    28.2238   Anisotropy =    15.0017

     21  O    Isotropic =   290.6511   Anisotropy =    72.1176

     22  H    Isotropic =    30.7805   Anisotropy =    14.7206

     23  C    Isotropic =   127.6828   Anisotropy =    34.7239

     24  H    Isotropic =    27.8597   Anisotropy =     8.4277

     25  H    Isotropic =    28.0448   Anisotropy =     7.1647

     26  O    Isotropic =   316.1014   Anisotropy =    40.0866

     27  H    Isotropic =    29.7541   Anisotropy =    13.7104

 The electronic state is 1-A.
 Alpha  occ. eigenvalues --  -19.27301 -19.25478 -19.25380 -14.41892 -10.31023
 Alpha  occ. eigenvalues --  -10.30226 -10.29627 -10.28720 -10.27838 -10.27483
 Alpha  occ. eigenvalues --  -10.24950 -10.24884  -1.08410  -1.05764  -1.04985
 Alpha  occ. eigenvalues --   -0.96487  -0.83197  -0.78983  -0.75753  -0.72129
 Alpha  occ. eigenvalues --   -0.66787  -0.62731  -0.60944  -0.57890  -0.56165
 Alpha  occ. eigenvalues --   -0.53259  -0.51932  -0.50780  -0.48837  -0.47116
 Alpha  occ. eigenvalues --   -0.46210  -0.45144  -0.43295  -0.42908  -0.41671
 Alpha  occ. eigenvalues --   -0.40481  -0.38553  -0.37271  -0.36481  -0.36000
 Alpha  occ. eigenvalues --   -0.35693  -0.35054  -0.33458  -0.31748  -0.30032
 Alpha  occ. eigenvalues --   -0.29129  -0.23479
 Alpha virt. eigenvalues --    0.00070   0.01195   0.02008   0.02408   0.03883
 Alpha virt. eigenvalues --    0.04114   0.04502   0.04994   0.05273   0.06730
 Alpha virt. eigenvalues --    0.07792   0.08135   0.08506   0.09049   0.09328

 Mulliken atomic charges:
              1
     1  C   -0.320903
     2  C   -0.117808
     3  N   -0.245644
     4  C   -0.197449
     5  C   -0.381102
     6  C    0.173544
     7  C   -0.148167
     8  C   -0.120824
     9  H    0.182716
    10  H    0.159906
    11  H    0.171765
    12  H    0.167749
    13  H    0.152795
    14  H    0.181256
    15  H    0.181205
    16  H    0.181660
    17  H    0.177899
    18  H    0.188268
    19  O   -0.512147
    20  H    0.390028
    21  O   -0.576865
    22  H    0.400759
    23  C   -0.259289
    24  H    0.160305
    25  H    0.166176
    26  O   -0.541711
    27  H    0.385879
 Sum of Mulliken atomic charges =   0.00000

 Dipole moment (field-independent basis, Debye):
    X=              2.6690    Y=             -3.5213    Z=              2.7630  Tot=              5.2113
 Quadrupole moment (field-independent basis, Debye-Ang):
   XX=            -74.5800   YY=            -81.4785   ZZ=            -73.6468
   XY=             -2.3350   XZ=             -2.1613   YZ=              0.4045

 Normal termination of Gaussian 09 at Fri May 17 12:17:42 2024.
