 Gaussian 09, Revision C.01,
 Gaussian 09:  AM64L-G09RevC.01 23-Sep-2011

 ------------------------------------------------
 # mpw1pw91/6-31+G** nmr scrf=(pcm,solvent=water)
 ------------------------------------------------

 99/9=1/99;
 -------
 comment
 -------
 Charge =  0 Multiplicity = 1

                         Standard orientation:
 ---------------------------------------------------------------------
 Center     Atomic      Atomic             Coordinates (Angstroms)
 Number     Number       Type             X           Y           Z
 ---------------------------------------------------------------------
      1          6           0       -1.940764    1.093068   -0.364605
      2          6           0       -0.730315    0.339405   -0.942450
      3          7           0        0.469791    0.838496   -0.182746
      4          6           0        0.005005    1.885550    0.764356
      5          6           0       -1.307409    2.388971    0.162185
      6          6           0        1.144124   -0.323480    0.452097
      7          6           0        0.124297   -1.468404    0.466902
      8          6           0       -0.719511   -1.208582   -0.794129
      9          1           0       -2.720042    1.262551   -1.113762
     10          1           0       -2.389498    0.535750    0.464577
     11          1           0       -0.623020    0.598236   -2.002250
     12          1           0        0.759542    2.673380    0.870126
     13          1           0       -0.178692    1.466044    1.764143
     14          1           0       -1.106848    3.080426   -0.665449
     15          1           0       -1.930050    2.909776    0.896309
     16          1           0        1.437430   -0.060770    1.474381
     17          1           0        0.593060   -2.459374    0.454213
     18          1           0       -0.205781   -1.647469   -1.654247
     19          8           0       -2.001816   -1.821053   -0.736543
     20          1           0       -2.262758   -1.782479    0.202279
     21          8           0       -0.778734   -1.371522    1.580069
     22          1           0       -0.319444   -1.715514    2.363723
     23          6           0        2.421515   -0.667130   -0.322553
     24          1           0        2.987680   -1.446357    0.198019
     25          1           0        2.175092   -1.043036   -1.327812
     26          8           0        3.263834    0.482588   -0.409866
     27          1           0        2.646879    1.202871   -0.645127
 ---------------------------------------------------------------------

 SCF Done:  E(RmPW1PW91) =  -594.198859275     A.U. after   13 cycles

      1  C    Isotropic =   166.3580   Anisotropy =    18.6793

      2  C    Isotropic =   127.4721   Anisotropy =    55.6092

      3  N    Isotropic =   198.3025   Anisotropy =    80.0342

      4  C    Isotropic =   136.2801   Anisotropy =    61.8061

      5  C    Isotropic =   166.2059   Anisotropy =    20.1773

      6  C    Isotropic =   120.7757   Anisotropy =    22.6080

      7  C    Isotropic =   118.1282   Anisotropy =    27.9519

      8  C    Isotropic =   120.6134   Anisotropy =    49.7449

      9  H    Isotropic =    29.9197   Anisotropy =    10.9215

     10  H    Isotropic =    29.6685   Anisotropy =     6.4511

     11  H    Isotropic =    27.8452   Anisotropy =     8.3765

     12  H    Isotropic =    28.2818   Anisotropy =     9.3565

     13  H    Isotropic =    28.5206   Anisotropy =     7.7679

     14  H    Isotropic =    29.6698   Anisotropy =    11.0747

     15  H    Isotropic =    29.5974   Anisotropy =    11.6795

     16  H    Isotropic =    28.6593   Anisotropy =     6.3636

     17  H    Isotropic =    27.6851   Anisotropy =     6.9227

     18  H    Isotropic =    27.2340   Anisotropy =     6.0708

     19  O    Isotropic =   316.6495   Anisotropy =    27.6821

     20  H    Isotropic =    28.3778   Anisotropy =    14.7644

     21  O    Isotropic =   294.3841   Anisotropy =    53.1802

     22  H    Isotropic =    29.7283   Anisotropy =    20.3059

     23  C    Isotropic =   132.9722   Anisotropy =    49.6993

     24  H    Isotropic =    28.2729   Anisotropy =     6.6068

     25  H    Isotropic =    28.5622   Anisotropy =     5.5467

     26  O    Isotropic =   314.3778   Anisotropy =    39.0820

     27  H    Isotropic =    28.9465   Anisotropy =    16.0768

 The electronic state is 1-A.
 Alpha  occ. eigenvalues --  -19.26703 -19.25525 -19.24977 -14.41658 -10.30983
 Alpha  occ. eigenvalues --  -10.30566 -10.29435 -10.28197 -10.27634 -10.26838
 Alpha  occ. eigenvalues --  -10.24554 -10.24415  -1.08127  -1.05393  -1.05004
 Alpha  occ. eigenvalues --   -0.96190  -0.83033  -0.78784  -0.75235  -0.71719
 Alpha  occ. eigenvalues --   -0.66711  -0.61872  -0.60565  -0.57653  -0.56135
 Alpha  occ. eigenvalues --   -0.53635  -0.52281  -0.49970  -0.48569  -0.46889
 Alpha  occ. eigenvalues --   -0.45933  -0.44843  -0.43585  -0.42937  -0.39922
 Alpha  occ. eigenvalues --   -0.39710  -0.38739  -0.37860  -0.36420  -0.35400
 Alpha  occ. eigenvalues --   -0.34909  -0.34533  -0.33224  -0.31440  -0.29546
 Alpha  occ. eigenvalues --   -0.29350  -0.23365
 Alpha virt. eigenvalues --    0.00236   0.01437   0.02066   0.02202   0.03751
 Alpha virt. eigenvalues --    0.04404   0.04590   0.04847   0.05629   0.07072
 Alpha virt. eigenvalues --    0.07783   0.08605   0.08806   0.09062   0.09230

 Mulliken atomic charges:
              1
     1  C   -0.376396
     2  C   -0.017608
     3  N   -0.247843
     4  C   -0.104748
     5  C   -0.456035
     6  C    0.091722
     7  C   -0.040685
     8  C   -0.173272
     9  H    0.175062
    10  H    0.170915
    11  H    0.166248
    12  H    0.163586
    13  H    0.163288
    14  H    0.176816
    15  H    0.176080
    16  H    0.175460
    17  H    0.173602
    18  H    0.180375
    19  O   -0.528748
    20  H    0.388702
    21  O   -0.638030
    22  H    0.407258
    23  C   -0.191874
    24  H    0.168632
    25  H    0.147067
    26  O   -0.532935
    27  H    0.383364
 Sum of Mulliken atomic charges =   0.00000

 Dipole moment (field-independent basis, Debye):
    X=             -0.7833    Y=             -0.4050    Z=              2.7920  Tot=              2.9279
 Quadrupole moment (field-independent basis, Debye-Ang):
   XX=            -91.0893   YY=            -69.5888   ZZ=            -68.1873
   XY=             -9.8614   XZ=             -0.3487   YZ=             -5.3941

 Normal termination of Gaussian 09 at Fri May 17 12:41:15 2024.
