 Gaussian 09, Revision C.01,
 Gaussian 09:  AM64L-G09RevC.01 23-Sep-2011

 ------------------------------------------------
 # mpw1pw91/6-31+G** nmr scrf=(pcm,solvent=water)
 ------------------------------------------------

 99/9=1/99;
 -------
 comment
 -------
 Charge =  0 Multiplicity = 1

                         Standard orientation:
 ---------------------------------------------------------------------
 Center     Atomic      Atomic             Coordinates (Angstroms)
 Number     Number       Type             X           Y           Z
 ---------------------------------------------------------------------
      1          6           0       -2.474999   -0.134482    0.562317
      2          6           0       -1.011022    0.082570    1.006086
      3          7           0       -0.191318   -0.960422    0.284029
      4          6           0       -1.119865   -1.764317   -0.547134
      5          6           0       -2.354850   -0.883849   -0.774073
      6          6           0        0.875022   -0.274887   -0.476987
      7          6           0        1.066360    1.041630    0.283212
      8          6           0       -0.372589    1.436694    0.660606
      9          1           0       -2.989988   -0.761403    1.299068
     10          1           0       -3.026588    0.805853    0.481441
     11          1           0       -0.914547   -0.066665    2.087301
     12          1           0       -1.400972   -2.676256   -0.004423
     13          1           0       -0.624548   -2.075208   -1.472123
     14          1           0       -3.248243   -1.466533   -1.021375
     15          1           0       -2.171232   -0.177049   -1.590602
     16          1           0        0.568251   -0.033284   -1.507020
     17          1           0        1.661927    0.873620    1.187539
     18          1           0       -0.404975    2.127995    1.513566
     19          8           0       -0.998797    2.044316   -0.472599
     20          1           0       -0.271448    2.500119   -0.940258
     21          8           0        1.697726    2.001362   -0.564849
     22          1           0        2.006909    2.731930   -0.002464
     23          6           0        2.125113   -1.154680   -0.531459
     24          1           0        1.955391   -1.993407   -1.224001
     25          1           0        2.978590   -0.578977   -0.905488
     26          8           0        2.456587   -1.639153    0.769500
     27          1           0        1.577549   -1.832054    1.158807
 ---------------------------------------------------------------------

 SCF Done:  E(RmPW1PW91) =  -594.203215217     A.U. after   13 cycles

      1  C    Isotropic =   167.1279   Anisotropy =    23.4311

      2  C    Isotropic =   128.1102   Anisotropy =    54.3851

      3  N    Isotropic =   200.9522   Anisotropy =    76.2614

      4  C    Isotropic =   142.2192   Anisotropy =    54.7351

      5  C    Isotropic =   168.3798   Anisotropy =    22.5245

      6  C    Isotropic =   125.6825   Anisotropy =    49.9975

      7  C    Isotropic =   121.5175   Anisotropy =    52.9209

      8  C    Isotropic =   120.8045   Anisotropy =    21.0990

      9  H    Isotropic =    29.8271   Anisotropy =    12.4219

     10  H    Isotropic =    29.3468   Anisotropy =     9.2645

     11  H    Isotropic =    28.0259   Anisotropy =     8.8383

     12  H    Isotropic =    28.8751   Anisotropy =    12.1085

     13  H    Isotropic =    28.7756   Anisotropy =     8.7681

     14  H    Isotropic =    30.0426   Anisotropy =    12.8220

     15  H    Isotropic =    29.7217   Anisotropy =     7.9428

     16  H    Isotropic =    28.8007   Anisotropy =     2.9696

     17  H    Isotropic =    27.2197   Anisotropy =     3.5241

     18  H    Isotropic =    27.7266   Anisotropy =     8.8019

     19  O    Isotropic =   313.2861   Anisotropy =    49.6367

     20  H    Isotropic =    28.6775   Anisotropy =    18.5954

     21  O    Isotropic =   309.8479   Anisotropy =    94.9846

     22  H    Isotropic =    30.0169   Anisotropy =    22.7251

     23  C    Isotropic =   135.5679   Anisotropy =    52.3050

     24  H    Isotropic =    27.9478   Anisotropy =     8.0388

     25  H    Isotropic =    27.9742   Anisotropy =     6.6402

     26  O    Isotropic =   329.4127   Anisotropy =    49.0854

     27  H    Isotropic =    28.2786   Anisotropy =    17.3593

 The electronic state is 1-A.
 Alpha  occ. eigenvalues --  -19.27254 -19.24982 -19.24581 -14.41868 -10.30849
 Alpha  occ. eigenvalues --  -10.30113 -10.29147 -10.28208 -10.27983 -10.26962
 Alpha  occ. eigenvalues --  -10.24540 -10.24175  -1.08403  -1.05113  -1.04823
 Alpha  occ. eigenvalues --   -0.96407  -0.82620  -0.79280  -0.75214  -0.71377
 Alpha  occ. eigenvalues --   -0.66929  -0.61793  -0.59920  -0.57464  -0.55802
 Alpha  occ. eigenvalues --   -0.52844  -0.52267  -0.49724  -0.49507  -0.48494
 Alpha  occ. eigenvalues --   -0.45349  -0.45077  -0.43508  -0.41961  -0.40558
 Alpha  occ. eigenvalues --   -0.39618  -0.38135  -0.37292  -0.36228  -0.35506
 Alpha  occ. eigenvalues --   -0.35085  -0.34028  -0.33870  -0.30790  -0.29627
 Alpha  occ. eigenvalues --   -0.28838  -0.24046
 Alpha virt. eigenvalues --    0.00182   0.01595   0.01737   0.02428   0.03861
 Alpha virt. eigenvalues --    0.04221   0.04533   0.04964   0.05584   0.07349
 Alpha virt. eigenvalues --    0.07472   0.08066   0.08694   0.09145   0.09579

 Mulliken atomic charges:
              1
     1  C   -0.538459
     2  C    0.182416
     3  N   -0.291093
     4  C   -0.279441
     5  C   -0.250038
     6  C    0.212328
     7  C   -0.197709
     8  C    0.056201
     9  H    0.175604
    10  H    0.180665
    11  H    0.168504
    12  H    0.166176
    13  H    0.165844
    14  H    0.169358
    15  H    0.182447
    16  H    0.173539
    17  H    0.187569
    18  H    0.159649
    19  O   -0.568252
    20  H    0.391231
    21  O   -0.604143
    22  H    0.403814
    23  C   -0.387708
    24  H    0.149252
    25  H    0.165044
    26  O   -0.563860
    27  H    0.391062
 Sum of Mulliken atomic charges =   0.00000

 Dipole moment (field-independent basis, Debye):
    X=             -1.3954    Y=              1.6378    Z=              0.5617  Tot=              2.2238
 Quadrupole moment (field-independent basis, Debye-Ang):
   XX=            -81.4446   YY=            -70.0014   ZZ=            -71.3371
   XY=             13.1177   XZ=             -3.1955   YZ=              6.9453

 Normal termination of Gaussian 09 at Fri May 17 12:22:08 2024.
