 Gaussian 09, Revision C.01,
 Gaussian 09:  AM64L-G09RevC.01 23-Sep-2011

 ------------------------------------------------
 # mpw1pw91/6-31+G** nmr scrf=(pcm,solvent=water)
 ------------------------------------------------

 99/9=1/99;
 -------
 comment
 -------
 Charge =  0 Multiplicity = 1

                         Standard orientation:
 ---------------------------------------------------------------------
 Center     Atomic      Atomic             Coordinates (Angstroms)
 Number     Number       Type             X           Y           Z
 ---------------------------------------------------------------------
      1          6           0       -2.616223    0.433565    0.011678
      2          6           0       -1.274624    0.470104    0.758843
      3          7           0       -0.587676   -0.839662    0.448011
      4          6           0       -1.456492   -1.604768   -0.467620
      5          6           0       -2.863260   -1.071751   -0.184817
      6          6           0        0.752704   -0.534178   -0.065593
      7          6           0        1.066164    0.832898    0.560770
      8          6           0       -0.266491    1.576456    0.406021
      9          1           0       -3.414824    0.933652    0.567937
     10          1           0       -2.521100    0.923296   -0.962045
     11          1           0       -1.454449    0.524241    1.840101
     12          1           0       -1.369434   -2.683209   -0.292585
     13          1           0       -1.185417   -1.419477   -1.521029
     14          1           0       -3.260775   -1.519104    0.734403
     15          1           0       -3.562776   -1.291338   -0.997450
     16          1           0        0.739791   -0.401180   -1.162958
     17          1           0        1.291191    0.707018    1.630288
     18          1           0       -0.350897    2.436463    1.083387
     19          8           0       -0.409167    2.011176   -0.949598
     20          1           0        0.497520    2.222804   -1.242906
     21          8           0        2.120054    1.535683   -0.092072
     22          1           0        2.804472    0.858042   -0.265971
     23          6           0        1.806982   -1.589092    0.256403
     24          1           0        1.917116   -1.707923    1.338535
     25          1           0        1.538081   -2.563393   -0.171296
     26          8           0        3.099019   -1.170316   -0.229444
     27          1           0        3.073423   -1.234025   -1.199692
 ---------------------------------------------------------------------

 SCF Done:  E(RmPW1PW91) =  -594.201116562     A.U. after   13 cycles

      1  C    Isotropic =   170.6280   Anisotropy =    20.4649

      2  C    Isotropic =   127.2316   Anisotropy =    50.6227

      3  N    Isotropic =   196.6995   Anisotropy =    78.5631

      4  C    Isotropic =   138.4532   Anisotropy =    56.9290

      5  C    Isotropic =   164.4135   Anisotropy =    22.9659

      6  C    Isotropic =   125.3321   Anisotropy =    57.8213

      7  C    Isotropic =   112.4595   Anisotropy =    42.4581

      8  C    Isotropic =   123.6616   Anisotropy =    29.2146

      9  H    Isotropic =    29.9709   Anisotropy =    11.6362

     10  H    Isotropic =    29.3892   Anisotropy =     7.0695

     11  H    Isotropic =    27.9246   Anisotropy =     8.9595

     12  H    Isotropic =    28.4938   Anisotropy =     9.6066

     13  H    Isotropic =    29.2371   Anisotropy =     7.8392

     14  H    Isotropic =    29.5884   Anisotropy =    10.9727

     15  H    Isotropic =    29.5037   Anisotropy =    11.6603

     16  H    Isotropic =    28.9065   Anisotropy =     3.8614

     17  H    Isotropic =    27.2710   Anisotropy =     4.1227

     18  H    Isotropic =    27.5879   Anisotropy =     9.0011

     19  O    Isotropic =   309.6173   Anisotropy =    44.1758

     20  H    Isotropic =    28.5538   Anisotropy =    17.8778

     21  O    Isotropic =   292.7664   Anisotropy =    38.8575

     22  H    Isotropic =    27.5846   Anisotropy =    21.4623

     23  C    Isotropic =   126.3140   Anisotropy =    58.5062

     24  H    Isotropic =    27.9936   Anisotropy =     4.5494

     25  H    Isotropic =    27.4078   Anisotropy =     5.4704

     26  O    Isotropic =   311.2872   Anisotropy =    62.2976

     27  H    Isotropic =    30.4202   Anisotropy =    16.9738

 The electronic state is 1-A.
 Alpha  occ. eigenvalues --  -19.27089 -19.26047 -19.25116 -14.41423 -10.30654
 Alpha  occ. eigenvalues --  -10.30271 -10.30076 -10.28113 -10.27897 -10.26876
 Alpha  occ. eigenvalues --  -10.24594 -10.24367  -1.08062  -1.06601  -1.04594
 Alpha  occ. eigenvalues --   -0.96582  -0.83043  -0.79417  -0.75139  -0.71642
 Alpha  occ. eigenvalues --   -0.66927  -0.61742  -0.60398  -0.57859  -0.55138
 Alpha  occ. eigenvalues --   -0.54071  -0.52212  -0.51264  -0.49137  -0.47970
 Alpha  occ. eigenvalues --   -0.46118  -0.43979  -0.43164  -0.42591  -0.40889
 Alpha  occ. eigenvalues --   -0.39258  -0.39042  -0.37805  -0.37311  -0.35482
 Alpha  occ. eigenvalues --   -0.34903  -0.33951  -0.33651  -0.31046  -0.30347
 Alpha  occ. eigenvalues --   -0.29235  -0.23279
 Alpha virt. eigenvalues --    0.00737   0.01148   0.02024   0.02447   0.03994
 Alpha virt. eigenvalues --    0.04295   0.04744   0.04970   0.05548   0.07306
 Alpha virt. eigenvalues --    0.07404   0.08007   0.08786   0.09109   0.09641

 Mulliken atomic charges:
              1
     1  C   -0.493740
     2  C    0.073615
     3  N   -0.128143
     4  C   -0.228524
     5  C   -0.345151
     6  C   -0.430355
     7  C   -0.042322
     8  C    0.164728
     9  H    0.173223
    10  H    0.188881
    11  H    0.168982
    12  H    0.166855
    13  H    0.149868
    14  H    0.177502
    15  H    0.176796
    16  H    0.167005
    17  H    0.177016
    18  H    0.158654
    19  O   -0.575880
    20  H    0.388881
    21  O   -0.593804
    22  H    0.411354
    23  C   -0.056164
    24  H    0.178516
    25  H    0.171344
    26  O   -0.602914
    27  H    0.403777
 Sum of Mulliken atomic charges =   0.00000

 Dipole moment (field-independent basis, Debye):
    X=             -0.4864    Y=             -2.6008    Z=             -0.8475  Tot=              2.7783
 Quadrupole moment (field-independent basis, Debye-Ang):
   XX=            -74.9975   YY=            -77.1103   ZZ=            -69.9364
   XY=             -0.6382   XZ=             -6.3933   YZ=              6.2153

 Normal termination of Gaussian 09 at Fri May 17 12:43:57 2024.
