 Gaussian 09, Revision C.01,
 Gaussian 09:  AM64L-G09RevC.01 23-Sep-2011

 ------------------------------------------------
 # mpw1pw91/6-31+G** nmr scrf=(pcm,solvent=water)
 ------------------------------------------------

 99/9=1/99;
 -------
 comment
 -------
 Charge =  0 Multiplicity = 1

                         Standard orientation:
 ---------------------------------------------------------------------
 Center     Atomic      Atomic             Coordinates (Angstroms)
 Number     Number       Type             X           Y           Z
 ---------------------------------------------------------------------
      1          6           0       -2.477406    0.434586    0.322164
      2          6           0       -1.033842    0.357607    0.844873
      3          7           0       -0.404991   -0.823801    0.149343
      4          6           0       -1.407824   -1.419048   -0.756814
      5          6           0       -2.753130   -1.001190   -0.155210
      6          6           0        0.850966   -0.390547   -0.482777
      7          6           0        1.252596    0.840725    0.339040
      8          6           0       -0.095484    1.545056    0.586595
      9          1           0       -3.178433    0.777107    1.089220
     10          1           0       -2.535752    1.124311   -0.524909
     11          1           0       -1.039360    0.168112    1.925777
     12          1           0       -1.292239   -2.507025   -0.819403
     13          1           0       -1.304529   -1.016658   -1.778731
     14          1           0       -3.006303   -1.647192    0.694184
     15          1           0       -3.569389   -1.063878   -0.881556
     16          1           0        0.690571   -0.065049   -1.525319
     17          1           0        1.696615    0.532254    1.292346
     18          1           0       -0.057854    2.230531    1.444039
     19          8           0       -0.463028    2.262818   -0.593472
     20          1           0        0.384623    2.580841   -0.961295
     21          8           0        2.167092    1.644216   -0.406659
     22          1           0        2.580519    2.270831    0.211538
     23          6           0        1.891647   -1.509638   -0.496209
     24          1           0        1.572846   -2.297347   -1.195560
     25          1           0        2.853264   -1.120723   -0.847016
     26          8           0        2.104674   -2.054348    0.806760
     27          1           0        1.205310   -2.166297    1.168277
 ---------------------------------------------------------------------

 SCF Done:  E(RmPW1PW91) =  -594.203787671     A.U. after   13 cycles

      1  C    Isotropic =   170.2024   Anisotropy =    19.9845

      2  C    Isotropic =   127.4106   Anisotropy =    51.9697

      3  N    Isotropic =   201.7863   Anisotropy =    69.4361

      4  C    Isotropic =   139.5351   Anisotropy =    56.3974

      5  C    Isotropic =   165.0182   Anisotropy =    22.6507

      6  C    Isotropic =   124.5195   Anisotropy =    50.1665

      7  C    Isotropic =   119.1563   Anisotropy =    53.8896

      8  C    Isotropic =   122.9439   Anisotropy =    26.3741

      9  H    Isotropic =    29.9285   Anisotropy =    11.5979

     10  H    Isotropic =    29.3553   Anisotropy =     7.2009

     11  H    Isotropic =    27.9693   Anisotropy =     8.7456

     12  H    Isotropic =    28.3962   Anisotropy =     9.7439

     13  H    Isotropic =    29.2485   Anisotropy =     8.4382

     14  H    Isotropic =    29.5217   Anisotropy =    10.9390

     15  H    Isotropic =    29.4857   Anisotropy =    11.7289

     16  H    Isotropic =    28.8928   Anisotropy =     2.6174

     17  H    Isotropic =    27.0289   Anisotropy =     3.1735

     18  H    Isotropic =    27.7697   Anisotropy =     8.8485

     19  O    Isotropic =   309.3035   Anisotropy =    50.0587

     20  H    Isotropic =    28.5312   Anisotropy =    18.2774

     21  O    Isotropic =   307.4289   Anisotropy =    97.1487

     22  H    Isotropic =    29.9309   Anisotropy =    22.4880

     23  C    Isotropic =   135.6617   Anisotropy =    57.1924

     24  H    Isotropic =    27.8163   Anisotropy =     7.6468

     25  H    Isotropic =    27.9429   Anisotropy =     6.5669

     26  O    Isotropic =   328.3365   Anisotropy =    48.5029

     27  H    Isotropic =    29.1761   Anisotropy =    16.1774

 The electronic state is 1-A.
 Alpha  occ. eigenvalues --  -19.27176 -19.25120 -19.24926 -14.41573 -10.30822
 Alpha  occ. eigenvalues --  -10.30148 -10.29228 -10.28097 -10.27936 -10.26960
 Alpha  occ. eigenvalues --  -10.24629 -10.24382  -1.08349  -1.05298  -1.04919
 Alpha  occ. eigenvalues --   -0.96474  -0.82970  -0.79302  -0.75121  -0.71460
 Alpha  occ. eigenvalues --   -0.66978  -0.61092  -0.60589  -0.57340  -0.55526
 Alpha  occ. eigenvalues --   -0.53578  -0.52717  -0.50096  -0.49063  -0.47605
 Alpha  occ. eigenvalues --   -0.46114  -0.44972  -0.43366  -0.41981  -0.40467
 Alpha  occ. eigenvalues --   -0.39713  -0.38195  -0.37696  -0.36143  -0.35619
 Alpha  occ. eigenvalues --   -0.35296  -0.34116  -0.33344  -0.31056  -0.29759
 Alpha  occ. eigenvalues --   -0.28997  -0.23571
 Alpha virt. eigenvalues --    0.00254   0.01492   0.01890   0.02394   0.03918
 Alpha virt. eigenvalues --    0.04315   0.04764   0.05028   0.05659   0.07063
 Alpha virt. eigenvalues --    0.07556   0.08149   0.09025   0.09290   0.09515

 Mulliken atomic charges:
              1
     1  C   -0.511934
     2  C    0.062744
     3  N   -0.262481
     4  C   -0.280799
     5  C   -0.312444
     6  C    0.312726
     7  C   -0.284185
     8  C    0.149382
     9  H    0.173301
    10  H    0.189432
    11  H    0.169949
    12  H    0.167899
    13  H    0.152145
    14  H    0.177678
    15  H    0.176280
    16  H    0.158842
    17  H    0.187687
    18  H    0.160272
    19  O   -0.574412
    20  H    0.391410
    21  O   -0.604040
    22  H    0.403314
    23  C   -0.346134
    24  H    0.153103
    25  H    0.165297
    26  O   -0.562030
    27  H    0.386999
 Sum of Mulliken atomic charges =   0.00000

 Dipole moment (field-independent basis, Debye):
    X=             -1.1359    Y=              1.5158    Z=              0.9247  Tot=              2.1078
 Quadrupole moment (field-independent basis, Debye-Ang):
   XX=            -75.6186   YY=            -74.5564   ZZ=            -71.3526
   XY=             13.3316   XZ=             -1.4498   YZ=              7.8199

 Normal termination of Gaussian 09 at Fri May 17 12:24:35 2024.
