 Gaussian 09, Revision C.01,
 Gaussian 09:  AM64L-G09RevC.01 23-Sep-2011

 ------------------------------------------------
 # mpw1pw91/6-31+G** nmr scrf=(pcm,solvent=water)
 ------------------------------------------------

 99/9=1/99;
 -------
 comment
 -------
 Charge =  0 Multiplicity = 1

                         Standard orientation:
 ---------------------------------------------------------------------
 Center     Atomic      Atomic             Coordinates (Angstroms)
 Number     Number       Type             X           Y           Z
 ---------------------------------------------------------------------
      1          6           0        2.077915   -1.499901   -0.067416
      2          6           0        1.225050   -0.366198   -0.669457
      3          7           0       -0.207580   -0.817011   -0.589275
      4          6           0       -0.213095   -2.140402    0.079746
      5          6           0        1.100213   -2.226617    0.867126
      6          6           0       -0.980472    0.228530    0.123509
      7          6           0       -0.138341    1.502651   -0.051814
      8          6           0        1.282297    0.967724    0.080933
      9          1           0        2.415976   -2.177906   -0.859809
     10          1           0        2.967270   -1.112347    0.440595
     11          1           0        1.507929   -0.175501   -1.712516
     12          1           0       -0.244886   -2.935864   -0.677246
     13          1           0       -1.105759   -2.246217    0.700152
     14          1           0        1.398907   -3.256084    1.090188
     15          1           0        1.007946   -1.687797    1.818609
     16          1           0       -1.038953    0.018677    1.204605
     17          1           0       -0.271215    1.911691   -1.063808
     18          1           0        1.480611    0.797432    1.150340
     19          8           0        2.293774    1.804569   -0.475482
     20          1           0        2.305700    2.622433    0.049887
     21          8           0       -0.384683    2.514079    0.922062
     22          1           0       -1.220391    2.950745    0.687502
     23          6           0       -2.399453    0.398731   -0.394250
     24          1           0       -2.832293    1.310533    0.046079
     25          1           0       -2.379672    0.526352   -1.485738
     26          8           0       -3.182911   -0.744268   -0.031229
     27          1           0       -4.072235   -0.609210   -0.396976
 ---------------------------------------------------------------------

 SCF Done:  E(RmPW1PW91) =  -594.197549699     A.U. after   13 cycles

      1  C    Isotropic =   163.8771   Anisotropy =    23.6135

      2  C    Isotropic =   128.4055   Anisotropy =    55.5535

      3  N    Isotropic =   195.3729   Anisotropy =    76.0169

      4  C    Isotropic =   139.3990   Anisotropy =    56.8442

      5  C    Isotropic =   171.2766   Anisotropy =    18.8141

      6  C    Isotropic =   124.8733   Anisotropy =    39.1931

      7  C    Isotropic =   116.8087   Anisotropy =    37.0526

      8  C    Isotropic =   114.9428   Anisotropy =    30.8437

      9  H    Isotropic =    29.8129   Anisotropy =    11.8210

     10  H    Isotropic =    29.7124   Anisotropy =     9.4883

     11  H    Isotropic =    28.2041   Anisotropy =     6.9982

     12  H    Isotropic =    28.7141   Anisotropy =    11.4373

     13  H    Isotropic =    28.5884   Anisotropy =     7.4559

     14  H    Isotropic =    30.0803   Anisotropy =    12.5974

     15  H    Isotropic =    29.8715   Anisotropy =     8.8683

     16  H    Isotropic =    28.8577   Anisotropy =     5.4131

     17  H    Isotropic =    28.0215   Anisotropy =     1.7505

     18  H    Isotropic =    27.8734   Anisotropy =     3.4954

     19  O    Isotropic =   297.7320   Anisotropy =    43.3332

     20  H    Isotropic =    29.3632   Anisotropy =    18.9652

     21  O    Isotropic =   300.2733   Anisotropy =    35.4482

     22  H    Isotropic =    29.8787   Anisotropy =    19.6332

     23  C    Isotropic =   126.2984   Anisotropy =    49.2771

     24  H    Isotropic =    27.7763   Anisotropy =     4.9795

     25  H    Isotropic =    28.0119   Anisotropy =     5.1051

     26  O    Isotropic =   312.8752   Anisotropy =    86.2489

     27  H    Isotropic =    30.2211   Anisotropy =    21.6287

 The electronic state is 1-A.
 Alpha  occ. eigenvalues --  -19.26481 -19.26029 -19.25577 -14.41234 -10.30686
 Alpha  occ. eigenvalues --  -10.30412 -10.29676 -10.28121 -10.27770 -10.26540
 Alpha  occ. eigenvalues --  -10.24584 -10.24354  -1.07546  -1.05788  -1.05620
 Alpha  occ. eigenvalues --   -0.96483  -0.82878  -0.79511  -0.75534  -0.71814
 Alpha  occ. eigenvalues --   -0.65960  -0.61824  -0.60232  -0.58037  -0.55850
 Alpha  occ. eigenvalues --   -0.54017  -0.52256  -0.50532  -0.49331  -0.47261
 Alpha  occ. eigenvalues --   -0.45936  -0.45310  -0.42866  -0.41699  -0.41147
 Alpha  occ. eigenvalues --   -0.39662  -0.38732  -0.37277  -0.36236  -0.35523
 Alpha  occ. eigenvalues --   -0.35035  -0.34664  -0.33263  -0.31036  -0.29811
 Alpha  occ. eigenvalues --   -0.29199  -0.23200
 Alpha virt. eigenvalues --    0.00728   0.01323   0.01592   0.02028   0.02922
 Alpha virt. eigenvalues --    0.03994   0.04568   0.04974   0.05768   0.07459
 Alpha virt. eigenvalues --    0.07536   0.08081   0.08436   0.08812   0.09404

 Mulliken atomic charges:
              1
     1  C   -0.515136
     2  C    0.128710
     3  N   -0.146721
     4  C   -0.249271
     5  C   -0.249907
     6  C   -0.105801
     7  C   -0.122463
     8  C   -0.083861
     9  H    0.177245
    10  H    0.178238
    11  H    0.167277
    12  H    0.159563
    13  H    0.174187
    14  H    0.172129
    15  H    0.172847
    16  H    0.177494
    17  H    0.180333
    18  H    0.174332
    19  O   -0.551781
    20  H    0.384852
    21  O   -0.545889
    22  H    0.386825
    23  C   -0.184934
    24  H    0.145349
    25  H    0.165776
    26  O   -0.583618
    27  H    0.394225
 Sum of Mulliken atomic charges =   0.00000

 Dipole moment (field-independent basis, Debye):
    X=             -2.4047    Y=              1.5501    Z=              0.3658  Tot=              2.8843
 Quadrupole moment (field-independent basis, Debye-Ang):
   XX=            -66.1422   YY=            -67.9770   ZZ=            -77.0154
   XY=             -9.7083   XZ=              6.5980   YZ=             -1.3756

 Normal termination of Gaussian 09 at Fri May 17 12:15:38 2024.
