 Gaussian 09, Revision C.01,
 Gaussian 09:  AM64L-G09RevC.01 23-Sep-2011

 ------------------------------------------------
 # mpw1pw91/6-31+G** nmr scrf=(pcm,solvent=water)
 ------------------------------------------------

 99/9=1/99;
 -------
 comment
 -------
 Charge =  0 Multiplicity = 1

                         Standard orientation:
 ---------------------------------------------------------------------
 Center     Atomic      Atomic             Coordinates (Angstroms)
 Number     Number       Type             X           Y           Z
 ---------------------------------------------------------------------
      1          6           0        2.266936   -1.110630    0.205807
      2          6           0        1.272707   -0.158815   -0.479051
      3          7           0       -0.074091   -0.818041   -0.375479
      4          6           0        0.086611   -2.082764    0.368861
      5          6           0        1.550773   -2.469499    0.145108
      6          6           0       -1.038911    0.144484    0.190086
      7          6           0       -0.402462    1.509208   -0.093884
      8          6           0        1.088512    1.233944    0.126053
      9          1           0        3.246506   -1.115378   -0.281556
     10          1           0        2.412041   -0.813878    1.251842
     11          1           0        1.536737   -0.035063   -1.538774
     12          1           0       -0.608451   -2.849971    0.009251
     13          1           0       -0.110325   -1.940517    1.445169
     14          1           0        1.675594   -2.925855   -0.844372
     15          1           0        1.911860   -3.182343    0.892876
     16          1           0       -1.118618    0.025259    1.285369
     17          1           0       -0.557062    1.789156   -1.146844
     18          1           0        1.269575    1.207485    1.210744
     19          8           0        1.963063    2.175224   -0.494920
     20          1           0        1.833030    3.025104   -0.040755
     21          8           0       -0.954112    2.505737    0.763763
     22          1           0       -0.617900    3.363470    0.454365
     23          6           0       -2.442015    0.016952   -0.395321
     24          1           0       -3.079201    0.799149    0.030710
     25          1           0       -2.405470    0.161489   -1.484269
     26          8           0       -3.076706   -1.226278   -0.073758
     27          1           0       -2.620544   -1.916567   -0.582033
 ---------------------------------------------------------------------

 SCF Done:  E(RmPW1PW91) =  -594.197791210     A.U. after   13 cycles

      1  C    Isotropic =   162.6113   Anisotropy =    25.6495

      2  C    Isotropic =   128.2005   Anisotropy =    56.2534

      3  N    Isotropic =   196.5214   Anisotropy =    91.5105

      4  C    Isotropic =   136.4149   Anisotropy =    57.0356

      5  C    Isotropic =   163.9788   Anisotropy =    24.1538

      6  C    Isotropic =   124.0922   Anisotropy =    39.3614

      7  C    Isotropic =   113.2221   Anisotropy =    37.1708

      8  C    Isotropic =   110.8139   Anisotropy =    16.2727

      9  H    Isotropic =    29.5137   Anisotropy =     9.7655

     10  H    Isotropic =    30.0198   Anisotropy =     8.2836

     11  H    Isotropic =    28.1519   Anisotropy =     6.8964

     12  H    Isotropic =    28.4026   Anisotropy =     8.3838

     13  H    Isotropic =    28.9216   Anisotropy =     7.5679

     14  H    Isotropic =    29.4891   Anisotropy =    10.5745

     15  H    Isotropic =    29.4599   Anisotropy =    11.5241

     16  H    Isotropic =    28.7514   Anisotropy =     4.6613

     17  H    Isotropic =    27.7991   Anisotropy =     1.7853

     18  H    Isotropic =    27.8237   Anisotropy =     2.9802

     19  O    Isotropic =   299.8949   Anisotropy =    36.8980

     20  H    Isotropic =    29.6258   Anisotropy =    18.6665

     21  O    Isotropic =   299.1881   Anisotropy =    40.2780

     22  H    Isotropic =    29.5702   Anisotropy =    19.3226

     23  C    Isotropic =   125.0552   Anisotropy =    49.1384

     24  H    Isotropic =    27.7497   Anisotropy =     5.3415

     25  H    Isotropic =    27.9654   Anisotropy =     5.5084

     26  O    Isotropic =   306.8771   Anisotropy =    22.1423

     27  H    Isotropic =    30.0492   Anisotropy =    14.7501

 The electronic state is 1-A.
 Alpha  occ. eigenvalues --  -19.26514 -19.26333 -19.25627 -14.41501 -10.30749
 Alpha  occ. eigenvalues --  -10.30386 -10.29434 -10.28187 -10.27997 -10.27106
 Alpha  occ. eigenvalues --  -10.24743 -10.24717  -1.07701  -1.05928  -1.05658
 Alpha  occ. eigenvalues --   -0.96815  -0.83346  -0.79547  -0.75536  -0.71617
 Alpha  occ. eigenvalues --   -0.66528  -0.61734  -0.60680  -0.57840  -0.56551
 Alpha  occ. eigenvalues --   -0.54174  -0.52719  -0.50177  -0.49660  -0.46516
 Alpha  occ. eigenvalues --   -0.46124  -0.44344  -0.43312  -0.42924  -0.40383
 Alpha  occ. eigenvalues --   -0.39559  -0.39149  -0.38748  -0.35944  -0.35611
 Alpha  occ. eigenvalues --   -0.34920  -0.34501  -0.33882  -0.32449  -0.30356
 Alpha  occ. eigenvalues --   -0.28103  -0.23223
 Alpha virt. eigenvalues --    0.00328   0.01039   0.01953   0.02364   0.03562
 Alpha virt. eigenvalues --    0.04094   0.04705   0.05020   0.05633   0.06464
 Alpha virt. eigenvalues --    0.07782   0.08063   0.08721   0.09246   0.09513

 Mulliken atomic charges:
              1
     1  C   -0.389060
     2  C   -0.089023
     3  N   -0.183232
     4  C   -0.199485
     5  C   -0.402029
     6  C    0.121042
     7  C   -0.071050
     8  C   -0.012341
     9  H    0.178892
    10  H    0.170540
    11  H    0.170478
    12  H    0.157303
    13  H    0.156092
    14  H    0.180219
    15  H    0.178719
    16  H    0.164894
    17  H    0.179155
    18  H    0.173783
    19  O   -0.548172
    20  H    0.380854
    21  O   -0.555047
    22  H    0.386737
    23  C   -0.317991
    24  H    0.169435
    25  H    0.161786
    26  O   -0.536438
    27  H    0.373940
 Sum of Mulliken atomic charges =   0.00000

 Dipole moment (field-independent basis, Debye):
    X=              2.7058    Y=              1.1323    Z=             -0.0632  Tot=              2.9338
 Quadrupole moment (field-independent basis, Debye-Ang):
   XX=            -87.2820   YY=            -58.8216   ZZ=            -75.5118
   XY=             -3.2391   XZ=              7.6044   YZ=              0.7985

 Normal termination of Gaussian 09 at Fri May 17 12:23:43 2024.
