 Gaussian 09, Revision C.01,
 Gaussian 09:  AM64L-G09RevC.01 23-Sep-2011

 ------------------------------------------------
 # mpw1pw91/6-31+G** nmr scrf=(pcm,solvent=water)
 ------------------------------------------------

 99/9=1/99;
 -------
 comment
 -------
 Charge =  0 Multiplicity = 1

                         Standard orientation:
 ---------------------------------------------------------------------
 Center     Atomic      Atomic             Coordinates (Angstroms)
 Number     Number       Type             X           Y           Z
 ---------------------------------------------------------------------
      1          6           0       -2.455696    0.631816   -0.115089
      2          6           0       -1.045071    0.603735    0.493677
      3          7           0       -0.507259   -0.772854    0.216431
      4          6           0       -1.558835   -1.559010   -0.464793
      5          6           0       -2.865942   -0.848717   -0.096911
      6          6           0        0.764971   -0.645539   -0.521158
      7          6           0        1.283250    0.729942   -0.096651
      8          6           0        0.005642    1.575459   -0.072599
      9          1           0       -3.140542    1.280151    0.439836
     10          1           0       -2.411054    0.993358   -1.150211
     11          1           0       -1.105897    0.760537    1.580441
     12          1           0       -1.544135   -2.606757   -0.144597
     13          1           0       -1.412776   -1.544303   -1.557444
     14          1           0       -3.189185   -1.144121    0.908741
     15          1           0       -3.675971   -1.083078   -0.794415
     16          1           0        0.600956   -0.623814   -1.613581
     17          1           0        1.690981    0.675683    0.924341
     18          1           0       -0.243329    1.852407   -1.103229
     19          8           0        0.126512    2.810203    0.630652
     20          1           0        0.345561    2.593510    1.554252
     21          8           0        2.282031    1.185074   -1.003641
     22          1           0        2.580471    2.051208   -0.678871
     23          6           0        1.710507   -1.807941   -0.221113
     24          1           0        1.287297   -2.736948   -0.632692
     25          1           0        2.676397   -1.636633   -0.707383
     26          8           0        1.963071   -1.949556    1.177084
     27          1           0        1.086175   -1.865460    1.594861
 ---------------------------------------------------------------------

 SCF Done:  E(RmPW1PW91) =  -594.202280411     A.U. after   13 cycles

      1  C    Isotropic =   162.0523   Anisotropy =    25.2871

      2  C    Isotropic =   125.7920   Anisotropy =    53.2229

      3  N    Isotropic =   205.6070   Anisotropy =    70.4764

      4  C    Isotropic =   139.7873   Anisotropy =    56.9991

      5  C    Isotropic =   164.7112   Anisotropy =    22.2227

      6  C    Isotropic =   123.4402   Anisotropy =    43.2344

      7  C    Isotropic =   116.3241   Anisotropy =    43.3239

      8  C    Isotropic =   110.2168   Anisotropy =    18.9439

      9  H    Isotropic =    29.4459   Anisotropy =     9.6735

     10  H    Isotropic =    29.9817   Anisotropy =     8.1331

     11  H    Isotropic =    28.4764   Anisotropy =     6.8254

     12  H    Isotropic =    28.3707   Anisotropy =     9.4454

     13  H    Isotropic =    29.1643   Anisotropy =     8.4787

     14  H    Isotropic =    29.5765   Anisotropy =    10.6607

     15  H    Isotropic =    29.4806   Anisotropy =    11.7127

     16  H    Isotropic =    28.9543   Anisotropy =     3.6912

     17  H    Isotropic =    27.4049   Anisotropy =     2.4723

     18  H    Isotropic =    27.9420   Anisotropy =     2.4079

     19  O    Isotropic =   290.9942   Anisotropy =    92.7563

     20  H    Isotropic =    30.8523   Anisotropy =    15.8656

     21  O    Isotropic =   299.9538   Anisotropy =    43.9979

     22  H    Isotropic =    29.3341   Anisotropy =    18.8892

     23  C    Isotropic =   135.6664   Anisotropy =    56.6110

     24  H    Isotropic =    27.8915   Anisotropy =     7.4995

     25  H    Isotropic =    27.9488   Anisotropy =     6.5978

     26  O    Isotropic =   329.8490   Anisotropy =    47.5127

     27  H    Isotropic =    29.2421   Anisotropy =    15.8852

 The electronic state is 1-A.
 Alpha  occ. eigenvalues --  -19.26311 -19.26163 -19.25053 -14.41906 -10.30498
 Alpha  occ. eigenvalues --  -10.30417 -10.29347 -10.28394 -10.28156 -10.27129
 Alpha  occ. eigenvalues --  -10.24825 -10.24799  -1.07525  -1.05818  -1.05347
 Alpha  occ. eigenvalues --   -0.96922  -0.83213  -0.79469  -0.75322  -0.71644
 Alpha  occ. eigenvalues --   -0.66953  -0.62377  -0.60683  -0.58085  -0.55814
 Alpha  occ. eigenvalues --   -0.54235  -0.51073  -0.50084  -0.48667  -0.47487
 Alpha  occ. eigenvalues --   -0.45472  -0.45063  -0.44161  -0.43136  -0.41035
 Alpha  occ. eigenvalues --   -0.39401  -0.38192  -0.37678  -0.36606  -0.35969
 Alpha  occ. eigenvalues --   -0.35419  -0.34614  -0.33739  -0.32361  -0.29457
 Alpha  occ. eigenvalues --   -0.28085  -0.23764
 Alpha virt. eigenvalues --    0.00644   0.01520   0.01753   0.02268   0.03853
 Alpha virt. eigenvalues --    0.04000   0.04603   0.04980   0.05085   0.06667
 Alpha virt. eigenvalues --    0.07855   0.08461   0.08760   0.09184   0.09334

 Mulliken atomic charges:
              1
     1  C   -0.402314
     2  C    0.028612
     3  N   -0.236463
     4  C   -0.260008
     5  C   -0.362628
     6  C    0.187784
     7  C   -0.115016
     8  C   -0.091365
     9  H    0.179728
    10  H    0.171547
    11  H    0.160926
    12  H    0.169648
    13  H    0.155479
    14  H    0.180332
    15  H    0.178770
    16  H    0.163027
    17  H    0.177554
    18  H    0.180109
    19  O   -0.531703
    20  H    0.374300
    21  O   -0.544969
    22  H    0.389557
    23  C   -0.302353
    24  H    0.153374
    25  H    0.167291
    26  O   -0.556458
    27  H    0.385239
 Sum of Mulliken atomic charges =   0.00000

 Dipole moment (field-independent basis, Debye):
    X=             -3.4862    Y=              0.1697    Z=              0.2317  Tot=              3.4980
 Quadrupole moment (field-independent basis, Debye-Ang):
   XX=            -76.5038   YY=            -79.4368   ZZ=            -71.6330
   XY=              8.5845   XZ=              0.0011   YZ=              6.9907

 Normal termination of Gaussian 09 at Fri May 17 12:40:29 2024.
