 Gaussian 09, Revision C.01,
 Gaussian 09:  AM64L-G09RevC.01 23-Sep-2011

 ------------------------------------------------
 # mpw1pw91/6-31+G** nmr scrf=(pcm,solvent=water)
 ------------------------------------------------

 99/9=1/99;
 -------
 comment
 -------
 Charge =  0 Multiplicity = 1

                         Standard orientation:
 ---------------------------------------------------------------------
 Center     Atomic      Atomic             Coordinates (Angstroms)
 Number     Number       Type             X           Y           Z
 ---------------------------------------------------------------------
      1          6           0        2.648750   -0.050961    0.089541
      2          6           0        1.339597    0.360631   -0.614626
      3          7           0        0.478867   -0.878730   -0.681377
      4          6           0        1.250967   -1.975190   -0.051532
      5          6           0        2.253025   -1.299565    0.892133
      6          6           0       -0.788059   -0.579446    0.019497
      7          6           0       -0.929136    0.935929   -0.121788
      8          6           0        0.494365    1.419386    0.119002
      9          1           0        3.411674   -0.310779   -0.653567
     10          1           0        3.050174    0.759597    0.707646
     11          1           0        1.539020    0.736604   -1.625188
     12          1           0        1.787240   -2.538280   -0.826649
     13          1           0        0.574716   -2.674059    0.449598
     14          1           0        3.104751   -1.939869    1.143556
     15          1           0        1.756808   -1.014594    1.828407
     16          1           0       -0.726089   -0.807932    1.097478
     17          1           0       -1.223088    1.192447   -1.149773
     18          1           0        0.694777    1.387479    1.199686
     19          8           0        0.660169    2.749591   -0.368821
     20          1           0        1.541445    3.050613   -0.091663
     21          8           0       -1.909307    1.425829    0.798483
     22          1           0       -2.100226    2.347235    0.554378
     23          6           0       -1.984470   -1.344226   -0.544827
     24          1           0       -2.125055   -1.080614   -1.604454
     25          1           0       -1.810893   -2.424532   -0.490004
     26          8           0       -3.171893   -1.077275    0.210087
     27          1           0       -3.169303   -0.116725    0.387798
 ---------------------------------------------------------------------

 SCF Done:  E(RmPW1PW91) =  -594.200220878     A.U. after   13 cycles

      1  C    Isotropic =   163.6406   Anisotropy =    23.4867

      2  C    Isotropic =   125.8848   Anisotropy =    55.4816

      3  N    Isotropic =   200.7673   Anisotropy =    67.8939

      4  C    Isotropic =   141.5183   Anisotropy =    53.1928

      5  C    Isotropic =   171.1738   Anisotropy =    19.6253

      6  C    Isotropic =   129.6820   Anisotropy =    48.8915

      7  C    Isotropic =   113.4667   Anisotropy =    33.0265

      8  C    Isotropic =   112.8332   Anisotropy =    23.7368

      9  H    Isotropic =    29.8218   Anisotropy =    11.7924

     10  H    Isotropic =    29.8397   Anisotropy =     9.3807

     11  H    Isotropic =    28.3697   Anisotropy =     6.8937

     12  H    Isotropic =    28.9629   Anisotropy =    11.9907

     13  H    Isotropic =    28.8416   Anisotropy =     8.4651

     14  H    Isotropic =    30.0657   Anisotropy =    12.6539

     15  H    Isotropic =    29.8286   Anisotropy =     8.7361

     16  H    Isotropic =    28.8436   Anisotropy =     4.9335

     17  H    Isotropic =    27.5349   Anisotropy =     1.9860

     18  H    Isotropic =    27.9119   Anisotropy =     3.9567

     19  O    Isotropic =   296.7636   Anisotropy =    30.4901

     20  H    Isotropic =    29.7189   Anisotropy =    18.9040

     21  O    Isotropic =   296.4953   Anisotropy =    36.5410

     22  H    Isotropic =    29.0466   Anisotropy =    19.5955

     23  C    Isotropic =   125.4986   Anisotropy =    58.7262

     24  H    Isotropic =    27.8274   Anisotropy =     4.1509

     25  H    Isotropic =    27.8297   Anisotropy =     4.4559

     26  O    Isotropic =   314.2012   Anisotropy =    40.1215

     27  H    Isotropic =    28.2875   Anisotropy =    19.6099

 The electronic state is 1-A.
 Alpha  occ. eigenvalues --  -19.27233 -19.26297 -19.24820 -14.41809 -10.31057
 Alpha  occ. eigenvalues --  -10.30541 -10.29356 -10.28412 -10.27923 -10.27035
 Alpha  occ. eigenvalues --  -10.24856 -10.24624  -1.08094  -1.06242  -1.04848
 Alpha  occ. eigenvalues --   -0.96998  -0.83117  -0.79731  -0.75237  -0.71873
 Alpha  occ. eigenvalues --   -0.66779  -0.61947  -0.60450  -0.58975  -0.56428
 Alpha  occ. eigenvalues --   -0.53530  -0.52280  -0.50188  -0.49725  -0.46748
 Alpha  occ. eigenvalues --   -0.46422  -0.44290  -0.43523  -0.42007  -0.40936
 Alpha  occ. eigenvalues --   -0.40639  -0.39740  -0.38456  -0.35991  -0.35478
 Alpha  occ. eigenvalues --   -0.35319  -0.34652  -0.33740  -0.31106  -0.29537
 Alpha  occ. eigenvalues --   -0.29426  -0.23706
 Alpha virt. eigenvalues --    0.00578   0.01382   0.01775   0.02121   0.03405
 Alpha virt. eigenvalues --    0.04228   0.04492   0.05052   0.05291   0.06818
 Alpha virt. eigenvalues --    0.07810   0.08367   0.08471   0.09248   0.09477

 Mulliken atomic charges:
              1
     1  C   -0.528739
     2  C    0.157069
     3  N   -0.148010
     4  C   -0.231352
     5  C   -0.223902
     6  C   -0.360993
     7  C    0.034612
     8  C   -0.125733
     9  H    0.180920
    10  H    0.176422
    11  H    0.173685
    12  H    0.166939
    13  H    0.167358
    14  H    0.174956
    15  H    0.175536
    16  H    0.184217
    17  H    0.187403
    18  H    0.178890
    19  O   -0.555364
    20  H    0.389198
    21  O   -0.578134
    22  H    0.399184
    23  C   -0.150282
    24  H    0.156807
    25  H    0.160471
    26  O   -0.553199
    27  H    0.392041
 Sum of Mulliken atomic charges =   0.00000

 Dipole moment (field-independent basis, Debye):
    X=              5.0055    Y=              2.0106    Z=              0.5807  Tot=              5.4254
 Quadrupole moment (field-independent basis, Debye-Ang):
   XX=            -76.9114   YY=            -70.0364   ZZ=            -76.9839
   XY=             -6.0274   XZ=              4.9990   YZ=              1.2730

 Normal termination of Gaussian 09 at Fri May 17 12:26:28 2024.
