 Gaussian 09, Revision C.01,
 Gaussian 09:  AM64L-G09RevC.01 23-Sep-2011

 ------------------------------------------------
 # mpw1pw91/6-31+G** nmr scrf=(pcm,solvent=water)
 ------------------------------------------------

 99/9=1/99;
 -------
 comment
 -------
 Charge =  0 Multiplicity = 1

                         Standard orientation:
 ---------------------------------------------------------------------
 Center     Atomic      Atomic             Coordinates (Angstroms)
 Number     Number       Type             X           Y           Z
 ---------------------------------------------------------------------
      1          6           0        1.956591   -1.621582   -0.164454
      2          6           0        1.138377   -0.435524   -0.701448
      3          7           0       -0.308021   -0.801737   -0.519778
      4          6           0       -0.348215   -2.087399    0.226882
      5          6           0        1.027154   -2.243309    0.887491
      6          6           0       -0.990486    0.321121    0.175341
      7          6           0       -0.061744    1.522906   -0.013139
      8          6           0        1.324751    0.883541    0.063834
      9          1           0        2.152963   -2.342382   -0.967015
     10          1           0        2.922702   -1.296314    0.235607
     11          1           0        1.356643   -0.250802   -1.762340
     12          1           0       -0.522117   -2.917255   -0.470954
     13          1           0       -1.178313   -2.084078    0.938100
     14          1           0        1.272807   -3.284140    1.121433
     15          1           0        1.066705   -1.667584    1.820524
     16          1           0       -1.067119    0.126377    1.257089
     17          1           0       -0.194483    1.954220   -1.018970
     18          1           0        1.552261    0.684837    1.117888
     19          8           0        2.391590    1.705017   -0.402657
     20          1           0        2.218900    1.896133   -1.341475
     21          8           0       -0.320799    2.511152    0.980333
     22          1           0        0.292795    3.246056    0.810442
     23          6           0       -2.397490    0.561171   -0.363760
     24          1           0       -2.861104    1.391937    0.178445
     25          1           0       -2.345100    0.834621   -1.427590
     26          8           0       -3.260446   -0.565985   -0.178081
     27          1           0       -2.887782   -1.286479   -0.713985
 ---------------------------------------------------------------------

 SCF Done:  E(RmPW1PW91) =  -594.199179539     A.U. after   13 cycles

      1  C    Isotropic =   164.8422   Anisotropy =    21.8280

      2  C    Isotropic =   126.3238   Anisotropy =    56.0317

      3  N    Isotropic =   199.7980   Anisotropy =    73.2227

      4  C    Isotropic =   138.1947   Anisotropy =    60.5016

      5  C    Isotropic =   171.3552   Anisotropy =    18.9893

      6  C    Isotropic =   124.8660   Anisotropy =    39.1439

      7  C    Isotropic =   116.4484   Anisotropy =    36.5142

      8  C    Isotropic =   112.4449   Anisotropy =    29.1905

      9  H    Isotropic =    29.7943   Anisotropy =    11.8935

     10  H    Isotropic =    29.6995   Anisotropy =     9.5750

     11  H    Isotropic =    28.5391   Anisotropy =     6.8973

     12  H    Isotropic =    28.6157   Anisotropy =    11.2801

     13  H    Isotropic =    28.7655   Anisotropy =     7.0518

     14  H    Isotropic =    30.0344   Anisotropy =    12.6554

     15  H    Isotropic =    29.8185   Anisotropy =     8.9035

     16  H    Isotropic =    28.8245   Anisotropy =     5.5890

     17  H    Isotropic =    28.1784   Anisotropy =     1.5721

     18  H    Isotropic =    28.1768   Anisotropy =     3.6995

     19  O    Isotropic =   293.8630   Anisotropy =    92.0992

     20  H    Isotropic =    30.9274   Anisotropy =    16.5108

     21  O    Isotropic =   299.2688   Anisotropy =    41.4309

     22  H    Isotropic =    29.4012   Anisotropy =    18.9191

     23  C    Isotropic =   125.6511   Anisotropy =    47.8260

     24  H    Isotropic =    27.7913   Anisotropy =     5.5914

     25  H    Isotropic =    28.0931   Anisotropy =     6.0884

     26  O    Isotropic =   308.6909   Anisotropy =    24.6053

     27  H    Isotropic =    29.9541   Anisotropy =    14.0159

 The electronic state is 1-A.
 Alpha  occ. eigenvalues --  -19.26433 -19.26281 -19.25568 -14.41762 -10.30846
 Alpha  occ. eigenvalues --  -10.30403 -10.29406 -10.28292 -10.28102 -10.27028
 Alpha  occ. eigenvalues --  -10.24834 -10.24629  -1.07632  -1.05908  -1.05636
 Alpha  occ. eigenvalues --   -0.96750  -0.83075  -0.79450  -0.75618  -0.71851
 Alpha  occ. eigenvalues --   -0.66435  -0.62672  -0.60923  -0.58331  -0.56153
 Alpha  occ. eigenvalues --   -0.53928  -0.51201  -0.50003  -0.49593  -0.47439
 Alpha  occ. eigenvalues --   -0.45434  -0.45144  -0.44281  -0.41520  -0.40837
 Alpha  occ. eigenvalues --   -0.39940  -0.39419  -0.37170  -0.36729  -0.35844
 Alpha  occ. eigenvalues --   -0.35330  -0.34840  -0.33535  -0.32458  -0.30076
 Alpha  occ. eigenvalues --   -0.28314  -0.23554
 Alpha virt. eigenvalues --    0.00711   0.01222   0.01650   0.02303   0.03510
 Alpha virt. eigenvalues --    0.03984   0.04308   0.05077   0.05259   0.06933
 Alpha virt. eigenvalues --    0.07733   0.08131   0.08205   0.09130   0.09518

 Mulliken atomic charges:
              1
     1  C   -0.515379
     2  C    0.119637
     3  N   -0.226903
     4  C   -0.252790
     5  C   -0.250627
     6  C    0.063027
     7  C    0.033586
     8  C   -0.201372
     9  H    0.179690
    10  H    0.180600
    11  H    0.160525
    12  H    0.168198
    13  H    0.172144
    14  H    0.175630
    15  H    0.175069
    16  H    0.177514
    17  H    0.167305
    18  H    0.185499
    19  O   -0.534001
    20  H    0.374098
    21  O   -0.550011
    22  H    0.388980
    23  C   -0.356416
    24  H    0.169584
    25  H    0.159237
    26  O   -0.540943
    27  H    0.378123
 Sum of Mulliken atomic charges =   0.00000

 Dipole moment (field-independent basis, Debye):
    X=              2.7504    Y=             -0.6730    Z=             -2.3567  Tot=              3.6839
 Quadrupole moment (field-independent basis, Debye-Ang):
   XX=            -89.8798   YY=            -65.6186   ZZ=            -71.5474
   XY=             -1.5184   XZ=              0.4705   YZ=             -5.5447

 Normal termination of Gaussian 09 at Fri May 17 12:34:16 2024.
