 Gaussian 09, Revision C.01,
 Gaussian 09:  AM64L-G09RevC.01 23-Sep-2011

 ------------------------------------------------
 # mpw1pw91/6-31+G** nmr scrf=(pcm,solvent=water)
 ------------------------------------------------

 99/9=1/99;
 -------
 comment
 -------
 Charge =  0 Multiplicity = 1

                         Standard orientation:
 ---------------------------------------------------------------------
 Center     Atomic      Atomic             Coordinates (Angstroms)
 Number     Number       Type             X           Y           Z
 ---------------------------------------------------------------------
      1          6           0        2.544423    0.045222   -0.202945
      2          6           0        1.111821    0.331066   -0.701728
      3          7           0        0.299259   -0.909361   -0.415623
      4          6           0        1.223704   -1.899077    0.190414
      5          6           0        2.356577   -1.082175    0.823300
      6          6           0       -0.818988   -0.519507    0.480473
      7          6           0       -1.046509    0.958035    0.137905
      8          6           0        0.379944    1.477633    0.007155
      9          1           0        3.168064   -0.305501   -1.033258
     10          1           0        3.015349    0.942986    0.210598
     11          1           0        1.108198    0.543126   -1.777375
     12          1           0        1.626570   -2.552598   -0.594046
     13          1           0        0.684127   -2.533187    0.900077
     14          1           0        3.265000   -1.669867    0.989430
     15          1           0        2.034953   -0.674860    1.789795
     16          1           0       -0.540736   -0.580578    1.545269
     17          1           0       -1.550875    1.042371   -0.834051
     18          1           0        0.782961    1.618904    1.021671
     19          8           0        0.516073    2.683587   -0.741636
     20          1           0        0.061398    3.379962   -0.238293
     21          8           0       -1.758660    1.688862    1.132660
     22          1           0       -2.692607    1.427862    1.070936
     23          6           0       -2.032440   -1.417601    0.251328
     24          1           0       -1.818019   -2.431127    0.623375
     25          1           0       -2.893123   -1.033342    0.811111
     26          8           0       -2.397311   -1.456239   -1.128448
     27          1           0       -1.538086   -1.499877   -1.591897
 ---------------------------------------------------------------------

 SCF Done:  E(RmPW1PW91) =  -594.202612318     A.U. after   13 cycles

      1  C    Isotropic =   162.7541   Anisotropy =    25.7704

      2  C    Isotropic =   128.5438   Anisotropy =    55.9752

      3  N    Isotropic =   204.5443   Anisotropy =    66.9592

      4  C    Isotropic =   142.7359   Anisotropy =    52.3723

      5  C    Isotropic =   171.3380   Anisotropy =    18.7337

      6  C    Isotropic =   124.9269   Anisotropy =    41.7459

      7  C    Isotropic =   119.8947   Anisotropy =    42.2320

      8  C    Isotropic =   113.9031   Anisotropy =    29.3362

      9  H    Isotropic =    29.7030   Anisotropy =    11.7181

     10  H    Isotropic =    29.6890   Anisotropy =     9.5177

     11  H    Isotropic =    28.2539   Anisotropy =     6.8807

     12  H    Isotropic =    28.9526   Anisotropy =    12.0452

     13  H    Isotropic =    28.8334   Anisotropy =     8.6989

     14  H    Isotropic =    30.0161   Anisotropy =    12.7321

     15  H    Isotropic =    29.8533   Anisotropy =     9.0624

     16  H    Isotropic =    29.0916   Anisotropy =     4.1257

     17  H    Isotropic =    27.5324   Anisotropy =     2.4718

     18  H    Isotropic =    27.8487   Anisotropy =     3.3571

     19  O    Isotropic =   297.0233   Anisotropy =    44.7166

     20  H    Isotropic =    29.3538   Anisotropy =    19.0760

     21  O    Isotropic =   304.6473   Anisotropy =    36.8034

     22  H    Isotropic =    29.7512   Anisotropy =    19.8754

     23  C    Isotropic =   136.0207   Anisotropy =    55.0199

     24  H    Isotropic =    27.9374   Anisotropy =     7.9291

     25  H    Isotropic =    28.1188   Anisotropy =     6.6123

     26  O    Isotropic =   331.3106   Anisotropy =    47.3715

     27  H    Isotropic =    28.7567   Anisotropy =    16.4059

 The electronic state is 1-A.
 Alpha  occ. eigenvalues --  -19.26427 -19.26056 -19.24971 -14.42185 -10.30525
 Alpha  occ. eigenvalues --  -10.30396 -10.29573 -10.28298 -10.28113 -10.27167
 Alpha  occ. eigenvalues --  -10.24777 -10.24647  -1.07545  -1.05797  -1.05384
 Alpha  occ. eigenvalues --   -0.96917  -0.82829  -0.79815  -0.75421  -0.71857
 Alpha  occ. eigenvalues --   -0.66761  -0.61962  -0.60349  -0.58496  -0.55928
 Alpha  occ. eigenvalues --   -0.53421  -0.51349  -0.50268  -0.49640  -0.48148
 Alpha  occ. eigenvalues --   -0.45470  -0.45281  -0.43807  -0.42035  -0.41443
 Alpha  occ. eigenvalues --   -0.40009  -0.38516  -0.37468  -0.36277  -0.35862
 Alpha  occ. eigenvalues --   -0.35294  -0.34632  -0.33522  -0.31047  -0.30172
 Alpha  occ. eigenvalues --   -0.28542  -0.24357
 Alpha virt. eigenvalues --    0.00622   0.01414   0.01699   0.02028   0.03668
 Alpha virt. eigenvalues --    0.04004   0.04190   0.05143   0.05427   0.07114
 Alpha virt. eigenvalues --    0.07867   0.08226   0.08580   0.09083   0.09349

 Mulliken atomic charges:
              1
     1  C   -0.518596
     2  C    0.112240
     3  N   -0.300446
     4  C   -0.262870
     5  C   -0.260830
     6  C    0.160209
     7  C   -0.175289
     8  C   -0.062419
     9  H    0.179468
    10  H    0.179819
    11  H    0.172731
    12  H    0.169553
    13  H    0.168117
    14  H    0.175565
    15  H    0.175995
    16  H    0.180093
    17  H    0.186720
    18  H    0.174700
    19  O   -0.547172
    20  H    0.384861
    21  O   -0.531615
    22  H    0.385114
    23  C   -0.289008
    24  H    0.153658
    25  H    0.158140
    26  O   -0.556685
    27  H    0.387948
 Sum of Mulliken atomic charges =   0.00000

 Dipole moment (field-independent basis, Debye):
    X=              1.5365    Y=             -1.0696    Z=              2.8645  Tot=              3.4220
 Quadrupole moment (field-independent basis, Debye-Ang):
   XX=            -72.6413   YY=            -74.5117   ZZ=            -76.8851
   XY=             -7.4828   XZ=             -4.1899   YZ=             -1.1955

 Normal termination of Gaussian 09 at Fri May 17 12:12:27 2024.
