 Gaussian 09, Revision C.01,
 Gaussian 09:  AM64L-G09RevC.01 23-Sep-2011

 ------------------------------------------------
 # mpw1pw91/6-31+G** nmr scrf=(pcm,solvent=water)
 ------------------------------------------------

 99/9=1/99;
 -------
 comment
 -------
 Charge =  0 Multiplicity = 1

                         Standard orientation:
 ---------------------------------------------------------------------
 Center     Atomic      Atomic             Coordinates (Angstroms)
 Number     Number       Type             X           Y           Z
 ---------------------------------------------------------------------
      1          6           0        2.219436   -1.175598    0.258087
      2          6           0        1.287156   -0.190408   -0.463471
      3          7           0       -0.082076   -0.808663   -0.416604
      4          6           0        0.013513   -2.098963    0.292954
      5          6           0        1.477602   -2.515728    0.127582
      6          6           0       -1.025795    0.166714    0.154726
      7          6           0       -0.355695    1.520982   -0.101059
      8          6           0        1.121344    1.213769    0.139325
      9          1           0        3.227087   -1.193387   -0.168522
     10          1           0        2.306307   -0.902193    1.317456
     11          1           0        1.600268   -0.072085   -1.510306
     12          1           0       -0.686454   -2.831507   -0.122952
     13          1           0       -0.230934   -1.984133    1.362935
     14          1           0        1.639105   -2.947968   -0.867591
     15          1           0        1.787213   -3.256361    0.871477
     16          1           0       -1.110965    0.039339    1.250800
     17          1           0       -0.486637    1.815718   -1.153516
     18          1           0        1.291788    1.183408    1.225051
     19          8           0        1.933200    2.225534   -0.455701
     20          1           0        2.848763    2.066049   -0.172473
     21          8           0       -0.902958    2.516491    0.758825
     22          1           0       -0.493407    3.361237    0.507785
     23          6           0       -2.432590    0.077329   -0.427667
     24          1           0       -3.033796    0.914394   -0.044172
     25          1           0       -2.392402    0.158020   -1.518581
     26          8           0       -3.076275   -1.171790   -0.148424
     27          1           0       -3.152976   -1.240346    0.818373
 ---------------------------------------------------------------------

 SCF Done:  E(RmPW1PW91) =  -594.198266863     A.U. after   13 cycles

      1  C    Isotropic =   162.7826   Anisotropy =    24.3291

      2  C    Isotropic =   125.7347   Anisotropy =    53.6015

      3  N    Isotropic =   193.0251   Anisotropy =    91.3849

      4  C    Isotropic =   136.4647   Anisotropy =    57.2713

      5  C    Isotropic =   164.0998   Anisotropy =    23.2345

      6  C    Isotropic =   122.8449   Anisotropy =    37.8229

      7  C    Isotropic =   114.9655   Anisotropy =    41.6982

      8  C    Isotropic =   110.8163   Anisotropy =    15.3441

      9  H    Isotropic =    29.5667   Anisotropy =     9.7386

     10  H    Isotropic =    30.1506   Anisotropy =     8.0698

     11  H    Isotropic =    28.2567   Anisotropy =     6.9826

     12  H    Isotropic =    28.1811   Anisotropy =     8.3224

     13  H    Isotropic =    29.0728   Anisotropy =     7.4468

     14  H    Isotropic =    29.5688   Anisotropy =    10.5507

     15  H    Isotropic =    29.5097   Anisotropy =    11.4496

     16  H    Isotropic =    28.9287   Anisotropy =     4.3831

     17  H    Isotropic =    27.6046   Anisotropy =     1.4429

     18  H    Isotropic =    27.8007   Anisotropy =     3.1388

     19  O    Isotropic =   295.7823   Anisotropy =    29.4236

     20  H    Isotropic =    29.7758   Anisotropy =    18.8189

     21  O    Isotropic =   296.2339   Anisotropy =    41.2909

     22  H    Isotropic =    29.3878   Anisotropy =    19.0477

     23  C    Isotropic =   125.4132   Anisotropy =    48.9405

     24  H    Isotropic =    27.4755   Anisotropy =     5.4447

     25  H    Isotropic =    28.1648   Anisotropy =     5.0306

     26  O    Isotropic =   306.3572   Anisotropy =    75.8623

     27  H    Isotropic =    30.9490   Anisotropy =    15.9867

 The electronic state is 1-A.
 Alpha  occ. eigenvalues --  -19.26186 -19.26175 -19.25484 -14.41202 -10.30819
 Alpha  occ. eigenvalues --  -10.30323 -10.29347 -10.28230 -10.27663 -10.26686
 Alpha  occ. eigenvalues --  -10.24652 -10.24588  -1.07454  -1.05745  -1.05505
 Alpha  occ. eigenvalues --   -0.96600  -0.83233  -0.79284  -0.75315  -0.71692
 Alpha  occ. eigenvalues --   -0.66249  -0.61542  -0.60467  -0.58735  -0.55872
 Alpha  occ. eigenvalues --   -0.54097  -0.51763  -0.50143  -0.48528  -0.47263
 Alpha  occ. eigenvalues --   -0.46166  -0.44408  -0.43257  -0.41985  -0.41108
 Alpha  occ. eigenvalues --   -0.40365  -0.38784  -0.37426  -0.35836  -0.35657
 Alpha  occ. eigenvalues --   -0.35003  -0.34387  -0.33705  -0.31251  -0.29931
 Alpha  occ. eigenvalues --   -0.28823  -0.22863
 Alpha virt. eigenvalues --    0.00838   0.01334   0.01894   0.01965   0.03320
 Alpha virt. eigenvalues --    0.04334   0.04683   0.04965   0.05405   0.06817
 Alpha virt. eigenvalues --    0.07579   0.08200   0.08731   0.09185   0.09453

 Mulliken atomic charges:
              1
     1  C   -0.380765
     2  C    0.008277
     3  N   -0.105698
     4  C   -0.195070
     5  C   -0.390107
     6  C   -0.085828
     7  C   -0.040191
     8  C   -0.101432
     9  H    0.178100
    10  H    0.170072
    11  H    0.169406
    12  H    0.170218
    13  H    0.150101
    14  H    0.178971
    15  H    0.176837
    16  H    0.157973
    17  H    0.176099
    18  H    0.172440
    19  O   -0.556320
    20  H    0.389761
    21  O   -0.555975
    22  H    0.390457
    23  C   -0.241951
    24  H    0.162458
    25  H    0.165999
    26  O   -0.541489
    27  H    0.377657
 Sum of Mulliken atomic charges =   0.00000

 Dipole moment (field-independent basis, Debye):
    X=              3.7931    Y=              0.1995    Z=              2.4789  Tot=              4.5357
 Quadrupole moment (field-independent basis, Debye-Ang):
   XX=            -71.5660   YY=            -73.8194   ZZ=            -74.3300
   XY=             -3.0484   XZ=             -1.6846   YZ=             -4.4797

 Normal termination of Gaussian 09 at Fri May 17 12:24:38 2024.
