 Gaussian 09, Revision C.01,
 Gaussian 09:  AM64L-G09RevC.01 23-Sep-2011

 ------------------------------------------------
 # mpw1pw91/6-31+G** nmr scrf=(pcm,solvent=water)
 ------------------------------------------------

 99/9=1/99;
 -------
 comment
 -------
 Charge =  0 Multiplicity = 1

                         Standard orientation:
 ---------------------------------------------------------------------
 Center     Atomic      Atomic             Coordinates (Angstroms)
 Number     Number       Type             X           Y           Z
 ---------------------------------------------------------------------
      1          6           0       -2.566107    0.259446   -0.423848
      2          6           0       -1.297278    0.530191    0.397431
      3          7           0       -0.581459   -0.790434    0.496776
      4          6           0       -1.424957   -1.826132   -0.136782
      5          6           0       -2.836465   -1.227670   -0.147499
      6          6           0        0.755986   -0.631843   -0.093497
      7          6           0        1.068309    0.844032    0.154766
      8          6           0       -0.265461    1.523255   -0.171181
      9          1           0       -3.397535    0.913387   -0.143270
     10          1           0       -2.362630    0.409572   -1.491753
     11          1           0       -1.575602    0.869810    1.405704
     12          1           0       -1.375321   -2.772692    0.413357
     13          1           0       -1.091663   -2.027126   -1.168071
     14          1           0       -3.311787   -1.353048    0.833127
     15          1           0       -3.480214   -1.699459   -0.896319
     16          1           0        0.738699   -0.792854   -1.187409
     17          1           0        1.300187    1.002361    1.219231
     18          1           0       -0.359091    1.595483   -1.260366
     19          8           0       -0.387623    2.860777    0.306150
     20          1           0       -0.324969    2.827825    1.277033
     21          8           0        2.175713    1.257355   -0.649347
     22          1           0        2.424990    2.151442   -0.360258
     23          6           0        1.806041   -1.579538    0.486892
     24          1           0        1.907457   -1.402847    1.568747
     25          1           0        1.501848   -2.622282    0.344810
     26          8           0        3.065305   -1.424881   -0.177069
     27          1           0        3.208275   -0.462994   -0.267554
 ---------------------------------------------------------------------

 SCF Done:  E(RmPW1PW91) =  -594.200026634     A.U. after   13 cycles

      1  C    Isotropic =   162.4261   Anisotropy =    25.0972

      2  C    Isotropic =   125.1291   Anisotropy =    52.6032

      3  N    Isotropic =   202.2821   Anisotropy =    77.3015

      4  C    Isotropic =   139.1407   Anisotropy =    58.4034

      5  C    Isotropic =   164.4777   Anisotropy =    23.1101

      6  C    Isotropic =   126.7553   Anisotropy =    52.1785

      7  C    Isotropic =   108.4590   Anisotropy =    25.8475

      8  C    Isotropic =   111.3879   Anisotropy =    19.9731

      9  H    Isotropic =    29.4943   Anisotropy =     9.6229

     10  H    Isotropic =    29.9972   Anisotropy =     7.9637

     11  H    Isotropic =    28.4980   Anisotropy =     7.0380

     12  H    Isotropic =    28.4372   Anisotropy =     9.4522

     13  H    Isotropic =    29.0999   Anisotropy =     8.0124

     14  H    Isotropic =    29.6254   Anisotropy =    10.7458

     15  H    Isotropic =    29.4834   Anisotropy =    11.5494

     16  H    Isotropic =    28.8471   Anisotropy =     3.7890

     17  H    Isotropic =    27.6199   Anisotropy =     2.4658

     18  H    Isotropic =    27.8931   Anisotropy =     2.3405

     19  O    Isotropic =   291.6433   Anisotropy =    93.9912

     20  H    Isotropic =    30.8588   Anisotropy =    16.1554

     21  O    Isotropic =   295.1939   Anisotropy =    37.9911

     22  H    Isotropic =    28.9496   Anisotropy =    19.2851

     23  C    Isotropic =   126.5177   Anisotropy =    57.2191

     24  H    Isotropic =    27.8926   Anisotropy =     4.2678

     25  H    Isotropic =    27.7842   Anisotropy =     4.7125

     26  O    Isotropic =   314.2688   Anisotropy =    40.4812

     27  H    Isotropic =    28.3777   Anisotropy =    19.4809

 The electronic state is 1-A.
 Alpha  occ. eigenvalues --  -19.27251 -19.26395 -19.24868 -14.41725 -10.31081
 Alpha  occ. eigenvalues --  -10.30641 -10.29412 -10.28427 -10.28190 -10.27037
 Alpha  occ. eigenvalues --  -10.24808 -10.24784  -1.08143  -1.06316  -1.04898
 Alpha  occ. eigenvalues --   -0.97076  -0.83396  -0.79607  -0.75136  -0.71717
 Alpha  occ. eigenvalues --   -0.67128  -0.62459  -0.60745  -0.58694  -0.56227
 Alpha  occ. eigenvalues --   -0.54703  -0.51016  -0.50302  -0.48727  -0.47540
 Alpha  occ. eigenvalues --   -0.45419  -0.45108  -0.43516  -0.43293  -0.40722
 Alpha  occ. eigenvalues --   -0.40242  -0.39380  -0.37601  -0.36779  -0.35942
 Alpha  occ. eigenvalues --   -0.35267  -0.34758  -0.33423  -0.33022  -0.29469
 Alpha  occ. eigenvalues --   -0.28266  -0.23488
 Alpha virt. eigenvalues --    0.00551   0.01450   0.01951   0.02481   0.03655
 Alpha virt. eigenvalues --    0.04309   0.04648   0.04903   0.04995   0.06542
 Alpha virt. eigenvalues --    0.07632   0.08039   0.08999   0.09358   0.09550

 Mulliken atomic charges:
              1
     1  C   -0.371840
     2  C    0.022936
     3  N   -0.113903
     4  C   -0.177465
     5  C   -0.412006
     6  C   -0.213578
     7  C   -0.075678
     8  C   -0.017559
     9  H    0.179742
    10  H    0.171518
    11  H    0.159624
    12  H    0.168153
    13  H    0.153875
    14  H    0.180257
    15  H    0.179561
    16  H    0.171548
    17  H    0.182612
    18  H    0.180981
    19  O   -0.535045
    20  H    0.375172
    21  O   -0.575990
    22  H    0.399711
    23  C   -0.193206
    24  H    0.157787
    25  H    0.164176
    26  O   -0.552692
    27  H    0.391309
 Sum of Mulliken atomic charges =   0.00000

 Dipole moment (field-independent basis, Debye):
    X=             -3.0728    Y=              1.5738    Z=              1.8888  Tot=              3.9353
 Quadrupole moment (field-independent basis, Debye-Ang):
   XX=            -79.0963   YY=            -77.1127   ZZ=            -72.0026
   XY=             12.9872   XZ=              4.8988   YZ=              5.3175

 Normal termination of Gaussian 09 at Fri May 17 12:41:08 2024.
