 Gaussian 09, Revision C.01,
 Gaussian 09:  AM64L-G09RevC.01 23-Sep-2011

 ------------------------------------------------
 # mpw1pw91/6-31+G** nmr scrf=(pcm,solvent=water)
 ------------------------------------------------

 99/9=1/99;
 -------
 comment
 -------
 Charge =  0 Multiplicity = 1

                         Standard orientation:
 ---------------------------------------------------------------------
 Center     Atomic      Atomic             Coordinates (Angstroms)
 Number     Number       Type             X           Y           Z
 ---------------------------------------------------------------------
      1          6           0        2.287930   -1.067656    0.246986
      2          6           0        1.297592   -0.128022   -0.458379
      3          7           0       -0.036827   -0.814032   -0.403043
      4          6           0        0.129051   -2.097084    0.305930
      5          6           0        1.609660   -2.441541    0.121404
      6          6           0       -1.031705    0.114212    0.165849
      7          6           0       -0.428913    1.498144   -0.094094
      8          6           0        1.064755    1.261809    0.151699
      9          1           0        3.288148   -1.034217   -0.195378
     10          1           0        2.377918   -0.793276    1.305548
     11          1           0        1.594580    0.007431   -1.509684
     12          1           0       -0.537904   -2.864054   -0.102397
     13          1           0       -0.107075   -1.994689    1.378907
     14          1           0        1.964110   -3.169143    0.858111
     15          1           0        1.779247   -2.861764   -0.877627
     16          1           0       -1.115193   -0.015524    1.260133
     17          1           0       -0.573812    1.780047   -1.149698
     18          1           0        1.232522    1.238400    1.234495
     19          8           0        1.915253    2.293982   -0.340997
     20          1           0        1.803703    2.319362   -1.307743
     21          8           0       -1.021044    2.473209    0.758343
     22          1           0       -0.597386    3.322249    0.546137
     23          6           0       -2.424631   -0.040792   -0.423379
     24          1           0       -3.056622    0.787886   -0.072101
     25          1           0       -2.368033    0.013157   -1.519667
     26          8           0       -2.970187   -1.297998   -0.004683
     27          1           0       -3.841033   -1.385599   -0.425129
 ---------------------------------------------------------------------

 SCF Done:  E(RmPW1PW91) =  -594.197925133     A.U. after   13 cycles

      1  C    Isotropic =   162.5080   Anisotropy =    24.7496

      2  C    Isotropic =   126.1485   Anisotropy =    53.9271

      3  N    Isotropic =   193.7756   Anisotropy =    92.4501

      4  C    Isotropic =   137.0001   Anisotropy =    56.5943

      5  C    Isotropic =   164.3125   Anisotropy =    23.1103

      6  C    Isotropic =   125.2476   Anisotropy =    40.6708

      7  C    Isotropic =   113.4680   Anisotropy =    37.5902

      8  C    Isotropic =   110.3049   Anisotropy =    18.3325

      9  H    Isotropic =    29.5151   Anisotropy =     9.7056

     10  H    Isotropic =    30.0295   Anisotropy =     8.1908

     11  H    Isotropic =    28.4212   Anisotropy =     6.9887

     12  H    Isotropic =    28.1795   Anisotropy =     8.3089

     13  H    Isotropic =    28.9828   Anisotropy =     7.5347

     14  H    Isotropic =    29.4997   Anisotropy =    11.4724

     15  H    Isotropic =    29.5593   Anisotropy =    10.5168

     16  H    Isotropic =    28.7148   Anisotropy =     4.4154

     17  H    Isotropic =    27.9270   Anisotropy =     1.5722

     18  H    Isotropic =    27.9875   Anisotropy =     2.4540

     19  O    Isotropic =   293.3466   Anisotropy =    96.7519

     20  H    Isotropic =    30.9437   Anisotropy =    16.2522

     21  O    Isotropic =   297.0680   Anisotropy =    42.7561

     22  H    Isotropic =    29.3218   Anisotropy =    18.7522

     23  C    Isotropic =   125.6768   Anisotropy =    48.2034

     24  H    Isotropic =    27.5181   Anisotropy =     5.1090

     25  H    Isotropic =    27.9799   Anisotropy =     5.0154

     26  O    Isotropic =   312.4881   Anisotropy =    90.2489

     27  H    Isotropic =    30.2939   Anisotropy =    21.6137

 The electronic state is 1-A.
 Alpha  occ. eigenvalues --  -19.26344 -19.26218 -19.25383 -14.41194 -10.30789
 Alpha  occ. eigenvalues --  -10.30364 -10.29371 -10.28256 -10.27927 -10.26628
 Alpha  occ. eigenvalues --  -10.24663 -10.24554  -1.07580  -1.05837  -1.05458
 Alpha  occ. eigenvalues --   -0.96625  -0.83273  -0.79237  -0.75491  -0.71535
 Alpha  occ. eigenvalues --   -0.66245  -0.62303  -0.60480  -0.57943  -0.55807
 Alpha  occ. eigenvalues --   -0.53463  -0.53033  -0.49970  -0.48707  -0.46919
 Alpha  occ. eigenvalues --   -0.45556  -0.45185  -0.43738  -0.42747  -0.40478
 Alpha  occ. eigenvalues --   -0.39154  -0.38278  -0.37442  -0.36680  -0.35727
 Alpha  occ. eigenvalues --   -0.35146  -0.34466  -0.33823  -0.32330  -0.29581
 Alpha  occ. eigenvalues --   -0.28147  -0.22926
 Alpha virt. eigenvalues --    0.00747   0.01352   0.01877   0.02072   0.03526
 Alpha virt. eigenvalues --    0.04186   0.04647   0.04896   0.05453   0.06843
 Alpha virt. eigenvalues --    0.07702   0.08002   0.08701   0.09228   0.09421

 Mulliken atomic charges:
              1
     1  C   -0.380911
     2  C    0.031298
     3  N   -0.112937
     4  C   -0.217099
     5  C   -0.358625
     6  C    0.017745
     7  C   -0.088972
     8  C   -0.125367
     9  H    0.177579
    10  H    0.170074
    11  H    0.156407
    12  H    0.167703
    13  H    0.148611
    14  H    0.176623
    15  H    0.178368
    16  H    0.162521
    17  H    0.170111
    18  H    0.181212
    19  O   -0.530261
    20  H    0.373927
    21  O   -0.550943
    22  H    0.389801
    23  C   -0.267057
    24  H    0.161580
    25  H    0.160843
    26  O   -0.585059
    27  H    0.392828
 Sum of Mulliken atomic charges =   0.00000

 Dipole moment (field-independent basis, Debye):
    X=              0.0822    Y=              0.4332    Z=             -2.6202  Tot=              2.6570
 Quadrupole moment (field-independent basis, Debye-Ang):
   XX=            -69.7459   YY=            -73.0159   ZZ=            -71.4887
   XY=             -4.1517   XZ=              4.0257   YZ=             -6.0178

 Normal termination of Gaussian 09 at Fri May 17 12:46:40 2024.
