 Gaussian 09, Revision C.01,
 Gaussian 09:  AM64L-G09RevC.01 23-Sep-2011

 ------------------------------------------------
 # mpw1pw91/6-31+G** nmr scrf=(pcm,solvent=water)
 ------------------------------------------------

 99/9=1/99;
 -------
 comment
 -------
 Charge =  0 Multiplicity = 1

                         Standard orientation:
 ---------------------------------------------------------------------
 Center     Atomic      Atomic             Coordinates (Angstroms)
 Number     Number       Type             X           Y           Z
 ---------------------------------------------------------------------
      1          6           0        2.102147   -1.461360   -0.164807
      2          6           0        1.191438   -0.343942   -0.702384
      3          7           0       -0.218947   -0.836109   -0.543986
      4          6           0       -0.162450   -2.125254    0.190699
      5          6           0        1.214889   -2.177000    0.863768
      6          6           0       -1.008684    0.219873    0.134876
      7          6           0       -0.181153    1.498481   -0.030908
      8          6           0        1.248823    0.981721    0.072294
      9          1           0        2.373533   -2.149613   -0.973996
     10          1           0        3.031284   -1.061418    0.256616
     11          1           0        1.407129   -0.127693   -1.756748
     12          1           0       -0.263640   -2.960897   -0.515022
     13          1           0       -0.994547   -2.197720    0.895500
     14          1           0        1.544175   -3.197899    1.083089
     15          1           0        1.197372   -1.617402    1.807366
     16          1           0       -1.091984    0.021292    1.215964
     17          1           0       -0.328583    1.924394   -1.035248
     18          1           0        1.469647    0.792048    1.133049
     19          8           0        2.164094    1.941625   -0.453250
     20          1           0        3.060401    1.629969   -0.244005
     21          8           0       -0.545747    2.453646    0.962555
     22          1           0       -0.034719    3.259855    0.778529
     23          6           0       -2.417077    0.363408   -0.419506
     24          1           0       -2.881997    1.264848    0.006368
     25          1           0       -2.368801    0.486314   -1.510730
     26          8           0       -3.175991   -0.801252   -0.074153
     27          1           0       -4.053083   -0.701014   -0.478237
 ---------------------------------------------------------------------

 SCF Done:  E(RmPW1PW91) =  -594.197681953     A.U. after   13 cycles

      1  C    Isotropic =   164.8496   Anisotropy =    21.5159

      2  C    Isotropic =   126.1740   Anisotropy =    55.5597

      3  N    Isotropic =   195.7883   Anisotropy =    79.7414

      4  C    Isotropic =   138.2983   Anisotropy =    59.7440

      5  C    Isotropic =   171.1020   Anisotropy =    19.4200

      6  C    Isotropic =   125.5668   Anisotropy =    41.2329

      7  C    Isotropic =   118.1354   Anisotropy =    42.9134

      8  C    Isotropic =   113.4468   Anisotropy =    26.8567

      9  H    Isotropic =    29.8339   Anisotropy =    11.9008

     10  H    Isotropic =    29.8631   Anisotropy =     9.5508

     11  H    Isotropic =    28.3234   Anisotropy =     6.7836

     12  H    Isotropic =    28.6025   Anisotropy =    11.2677

     13  H    Isotropic =    28.6840   Anisotropy =     7.2171

     14  H    Isotropic =    30.0704   Anisotropy =    12.5812

     15  H    Isotropic =    29.8733   Anisotropy =     8.8317

     16  H    Isotropic =    28.7584   Anisotropy =     5.2161

     17  H    Isotropic =    27.8621   Anisotropy =     1.8320

     18  H    Isotropic =    27.9873   Anisotropy =     4.1325

     19  O    Isotropic =   298.8642   Anisotropy =    35.2564

     20  H    Isotropic =    29.7575   Anisotropy =    18.9791

     21  O    Isotropic =   297.9557   Anisotropy =    41.9704

     22  H    Isotropic =    29.4052   Anisotropy =    19.1789

     23  C    Isotropic =   125.6609   Anisotropy =    48.0030

     24  H    Isotropic =    27.5570   Anisotropy =     5.0493

     25  H    Isotropic =    28.0002   Anisotropy =     5.1185

     26  O    Isotropic =   313.1169   Anisotropy =    88.9781

     27  H    Isotropic =    30.2621   Anisotropy =    21.7191

 The electronic state is 1-A.
 Alpha  occ. eigenvalues --  -19.26223 -19.26147 -19.25388 -14.41196 -10.30737
 Alpha  occ. eigenvalues --  -10.30229 -10.29300 -10.28204 -10.27621 -10.26599
 Alpha  occ. eigenvalues --  -10.24759 -10.24435  -1.07443  -1.05738  -1.05452
 Alpha  occ. eigenvalues --   -0.96432  -0.82988  -0.79306  -0.75530  -0.71817
 Alpha  occ. eigenvalues --   -0.65755  -0.61676  -0.60223  -0.58441  -0.55816
 Alpha  occ. eigenvalues --   -0.53574  -0.52318  -0.50128  -0.49467  -0.47436
 Alpha  occ. eigenvalues --   -0.45792  -0.45099  -0.42712  -0.41960  -0.40470
 Alpha  occ. eigenvalues --   -0.40111  -0.38432  -0.37881  -0.35891  -0.35464
 Alpha  occ. eigenvalues --   -0.34986  -0.34446  -0.33570  -0.31083  -0.29635
 Alpha  occ. eigenvalues --   -0.29137  -0.23038
 Alpha virt. eigenvalues --    0.00682   0.01288   0.01715   0.02055   0.02841
 Alpha virt. eigenvalues --    0.04183   0.04591   0.05068   0.05672   0.06982
 Alpha virt. eigenvalues --    0.07862   0.08187   0.08330   0.08895   0.09495

 Mulliken atomic charges:
              1
     1  C   -0.488345
     2  C    0.134696
     3  N   -0.138492
     4  C   -0.247921
     5  C   -0.251241
     6  C   -0.101120
     7  C    0.058123
     8  C   -0.205843
     9  H    0.179443
    10  H    0.173477
    11  H    0.169250
    12  H    0.158846
    13  H    0.168917
    14  H    0.172989
    15  H    0.173086
    16  H    0.171859
    17  H    0.173715
    18  H    0.177494
    19  O   -0.551246
    20  H    0.388138
    21  O   -0.556080
    22  H    0.388777
    23  C   -0.273674
    24  H    0.161093
    25  H    0.160699
    26  O   -0.588737
    27  H    0.392098
 Sum of Mulliken atomic charges =   0.00000

 Dipole moment (field-independent basis, Debye):
    X=              2.1644    Y=              0.0980    Z=             -0.2480  Tot=              2.1807
 Quadrupole moment (field-independent basis, Debye-Ang):
   XX=            -59.8330   YY=            -73.5762   ZZ=            -76.5800
   XY=             -3.7874   XZ=              6.8569   YZ=             -1.8434

 Normal termination of Gaussian 09 at Fri May 17 12:35:47 2024.
