 Gaussian 09, Revision C.01,
 Gaussian 09:  AM64L-G09RevC.01 23-Sep-2011

 ------------------------------------------------
 # mpw1pw91/6-31+G** nmr scrf=(pcm,solvent=water)
 ------------------------------------------------

 99/9=1/99;
 -------
 comment
 -------
 Charge =  0 Multiplicity = 1

                         Standard orientation:
 ---------------------------------------------------------------------
 Center     Atomic      Atomic             Coordinates (Angstroms)
 Number     Number       Type             X           Y           Z
 ---------------------------------------------------------------------
      1          6           0        1.969647   -1.600531   -0.169642
      2          6           0        1.136224   -0.424843   -0.707550
      3          7           0       -0.305163   -0.808293   -0.516216
      4          6           0       -0.327617   -2.090409    0.236398
      5          6           0        1.052935   -2.228143    0.890124
      6          6           0       -0.995631    0.310507    0.173934
      7          6           0       -0.077625    1.521508   -0.016718
      8          6           0        1.312199    0.899690    0.051537
      9          1           0        2.169543   -2.322154   -0.970569
     10          1           0        2.935380   -1.265837    0.225271
     11          1           0        1.347251   -0.236992   -1.767843
     12          1           0       -0.496076   -2.925536   -0.456517
     13          1           0       -1.153807   -2.092885    0.952230
     14          1           0        1.311569   -3.265101    1.127408
     15          1           0        1.090976   -1.647608    1.820221
     16          1           0       -1.073330    0.118608    1.256059
     17          1           0       -0.216779    1.954329   -1.019423
     18          1           0        1.550162    0.703638    1.107497
     19          8           0        2.280666    1.782711   -0.512129
     20          1           0        3.155586    1.391261   -0.351578
     21          8           0       -0.347229    2.503164    0.981449
     22          1           0        0.218074    3.268950    0.784330
     23          6           0       -2.403407    0.539811   -0.367981
     24          1           0       -2.873225    1.370085    0.169584
     25          1           0       -2.351636    0.808207   -1.433124
     26          8           0       -3.258452   -0.592437   -0.177359
     27          1           0       -2.877780   -1.313964   -0.706326
 ---------------------------------------------------------------------

 SCF Done:  E(RmPW1PW91) =  -594.199270692     A.U. after   13 cycles

      1  C    Isotropic =   164.9819   Anisotropy =    20.9640

      2  C    Isotropic =   125.8919   Anisotropy =    56.2096

      3  N    Isotropic =   198.9748   Anisotropy =    75.2339

      4  C    Isotropic =   138.3629   Anisotropy =    60.2916

      5  C    Isotropic =   171.1261   Anisotropy =    19.7320

      6  C    Isotropic =   124.5935   Anisotropy =    40.1118

      7  C    Isotropic =   117.8932   Anisotropy =    41.3796

      8  C    Isotropic =   113.2941   Anisotropy =    26.3809

      9  H    Isotropic =    29.8226   Anisotropy =    11.9364

     10  H    Isotropic =    29.8647   Anisotropy =     9.6181

     11  H    Isotropic =    28.3368   Anisotropy =     6.8280

     12  H    Isotropic =    28.6212   Anisotropy =    11.3301

     13  H    Isotropic =    28.7666   Anisotropy =     7.0840

     14  H    Isotropic =    30.0493   Anisotropy =    12.6670

     15  H    Isotropic =    29.8534   Anisotropy =     8.8302

     16  H    Isotropic =    28.7949   Anisotropy =     5.5811

     17  H    Isotropic =    27.8618   Anisotropy =     1.6568

     18  H    Isotropic =    27.9760   Anisotropy =     4.1788

     19  O    Isotropic =   297.9892   Anisotropy =    35.0490

     20  H    Isotropic =    29.7466   Anisotropy =    18.8871

     21  O    Isotropic =   298.1527   Anisotropy =    40.9428

     22  H    Isotropic =    29.4488   Anisotropy =    19.1686

     23  C    Isotropic =   125.6066   Anisotropy =    47.9234

     24  H    Isotropic =    27.7644   Anisotropy =     5.5907

     25  H    Isotropic =    28.0577   Anisotropy =     6.0438

     26  O    Isotropic =   308.6058   Anisotropy =    24.7375

     27  H    Isotropic =    29.9400   Anisotropy =    14.0088

 The electronic state is 1-A.
 Alpha  occ. eigenvalues --  -19.26276 -19.26202 -19.25541 -14.41687 -10.30813
 Alpha  occ. eigenvalues --  -10.30337 -10.29361 -10.28214 -10.27860 -10.27007
 Alpha  occ. eigenvalues --  -10.24910 -10.24644  -1.07495  -1.05812  -1.05596
 Alpha  occ. eigenvalues --   -0.96689  -0.83078  -0.79501  -0.75556  -0.71997
 Alpha  occ. eigenvalues --   -0.66171  -0.61848  -0.60521  -0.58636  -0.56570
 Alpha  occ. eigenvalues --   -0.53154  -0.52435  -0.49941  -0.49649  -0.46901
 Alpha  occ. eigenvalues --   -0.46187  -0.44724  -0.43114  -0.42449  -0.40687
 Alpha  occ. eigenvalues --   -0.40151  -0.39058  -0.38336  -0.36072  -0.35254
 Alpha  occ. eigenvalues --   -0.35158  -0.34804  -0.33700  -0.31075  -0.29949
 Alpha  occ. eigenvalues --   -0.29261  -0.23478
 Alpha virt. eigenvalues --    0.00671   0.01191   0.01723   0.02214   0.03099
 Alpha virt. eigenvalues --    0.04102   0.04616   0.05056   0.05422   0.06794
 Alpha virt. eigenvalues --    0.07924   0.08170   0.08252   0.09034   0.09458

 Mulliken atomic charges:
              1
     1  C   -0.482668
     2  C    0.073742
     3  N   -0.225470
     4  C   -0.254636
     5  C   -0.249215
     6  C    0.028065
     7  C    0.055581
     8  C   -0.184201
     9  H    0.181025
    10  H    0.175096
    11  H    0.172796
    12  H    0.167987
    13  H    0.171730
    14  H    0.175367
    15  H    0.175211
    16  H    0.176368
    17  H    0.172829
    18  H    0.178367
    19  O   -0.550272
    20  H    0.388041
    21  O   -0.555084
    22  H    0.389106
    23  C   -0.344403
    24  H    0.169295
    25  H    0.158684
    26  O   -0.541394
    27  H    0.378050
 Sum of Mulliken atomic charges =   0.00000

 Dipole moment (field-independent basis, Debye):
    X=              4.8275    Y=             -1.6909    Z=             -0.2945  Tot=              5.1236
 Quadrupole moment (field-independent basis, Debye-Ang):
   XX=            -77.9899   YY=            -69.1759   ZZ=            -75.9847
   XY=             -1.6365   XZ=              4.5851   YZ=             -0.9075

 Normal termination of Gaussian 09 at Fri May 17 12:17:39 2024.
