 Gaussian 09, Revision C.01,
 Gaussian 09:  AM64L-G09RevC.01 23-Sep-2011

 ------------------------------------------------
 # mpw1pw91/6-31+G** nmr scrf=(pcm,solvent=water)
 ------------------------------------------------

 99/9=1/99;
 -------
 comment
 -------
 Charge =  0 Multiplicity = 1

                         Standard orientation:
 ---------------------------------------------------------------------
 Center     Atomic      Atomic             Coordinates (Angstroms)
 Number     Number       Type             X           Y           Z
 ---------------------------------------------------------------------
      1          6           0        2.011703   -1.575174   -0.068038
      2          6           0        1.206873   -0.407780   -0.672034
      3          7           0       -0.241938   -0.801638   -0.593392
      4          6           0       -0.304636   -2.121794    0.077318
      5          6           0        1.003403   -2.261202    0.865984
      6          6           0       -0.978686    0.273295    0.110556
      7          6           0       -0.089918    1.510213   -0.047455
      8          6           0        1.311076    0.925160    0.086618
      9          1           0        2.325224   -2.267557   -0.858063
     10          1           0        2.915029   -1.224409    0.443395
     11          1           0        1.498614   -0.225958   -1.714150
     12          1           0       -0.370223   -2.916078   -0.678734
     13          1           0       -1.202718   -2.188474    0.696139
     14          1           0        1.260169   -3.301558    1.090780
     15          1           0        0.931377   -1.717917    1.816747
     16          1           0       -1.057082    0.064322    1.192281
     17          1           0       -0.199941    1.933938   -1.057442
     18          1           0        1.503615    0.740181    1.153722
     19          8           0        2.281256    1.832848   -0.433606
     20          1           0        3.158151    1.477166   -0.212414
     21          8           0       -0.424987    2.489289    0.932920
     22          1           0        0.119978    3.272468    0.746973
     23          6           0       -2.391543    0.489259   -0.422582
     24          1           0       -2.802665    1.411774    0.012592
     25          1           0       -2.364028    0.608351   -1.510323
     26          8           0       -3.268185   -0.615147   -0.167807
     27          1           0       -3.336226   -0.702572    0.797996
 ---------------------------------------------------------------------

 SCF Done:  E(RmPW1PW91) =  -594.197735337     A.U. after   13 cycles

      1  C    Isotropic =   164.4678   Anisotropy =    22.4364

      2  C    Isotropic =   126.4024   Anisotropy =    55.7146

      3  N    Isotropic =   194.6395   Anisotropy =    75.4826

      4  C    Isotropic =   138.6234   Anisotropy =    57.0611

      5  C    Isotropic =   171.2630   Anisotropy =    19.6956

      6  C    Isotropic =   124.5923   Anisotropy =    33.5351

      7  C    Isotropic =   118.6166   Anisotropy =    42.7371

      8  C    Isotropic =   112.6150   Anisotropy =    24.2911

      9  H    Isotropic =    29.8462   Anisotropy =    11.8629

     10  H    Isotropic =    29.8840   Anisotropy =     9.4337

     11  H    Isotropic =    28.3211   Anisotropy =     6.9808

     12  H    Isotropic =    28.6725   Anisotropy =    11.3738

     13  H    Isotropic =    28.7086   Anisotropy =     7.4723

     14  H    Isotropic =    30.1029   Anisotropy =    12.6178

     15  H    Isotropic =    29.9199   Anisotropy =     8.8198

     16  H    Isotropic =    29.0023   Anisotropy =     5.3273

     17  H    Isotropic =    27.8753   Anisotropy =     1.8949

     18  H    Isotropic =    28.0155   Anisotropy =     4.1156

     19  O    Isotropic =   297.8551   Anisotropy =    34.2448

     20  H    Isotropic =    29.7434   Anisotropy =    18.9018

     21  O    Isotropic =   298.3636   Anisotropy =    41.3405

     22  H    Isotropic =    29.4263   Anisotropy =    19.2258

     23  C    Isotropic =   125.1217   Anisotropy =    48.3771

     24  H    Isotropic =    27.5090   Anisotropy =     5.3276

     25  H    Isotropic =    28.1969   Anisotropy =     5.1001

     26  O    Isotropic =   305.4160   Anisotropy =    83.1490

     27  H    Isotropic =    31.0544   Anisotropy =    16.0708

 The electronic state is 1-A.
 Alpha  occ. eigenvalues --  -19.26231 -19.26190 -19.25564 -14.41320 -10.30810
 Alpha  occ. eigenvalues --  -10.30305 -10.29352 -10.28316 -10.27675 -10.26726
 Alpha  occ. eigenvalues --  -10.24760 -10.24482  -1.07474  -1.05786  -1.05566
 Alpha  occ. eigenvalues --   -0.96585  -0.82987  -0.79363  -0.75455  -0.71797
 Alpha  occ. eigenvalues --   -0.66213  -0.61793  -0.60423  -0.58802  -0.56175
 Alpha  occ. eigenvalues --   -0.53548  -0.51695  -0.49864  -0.49394  -0.47109
 Alpha  occ. eigenvalues --   -0.46416  -0.44663  -0.42892  -0.41888  -0.41520
 Alpha  occ. eigenvalues --   -0.40223  -0.38491  -0.37671  -0.35858  -0.35593
 Alpha  occ. eigenvalues --   -0.35081  -0.34776  -0.33587  -0.31240  -0.29863
 Alpha  occ. eigenvalues --   -0.28961  -0.23149
 Alpha virt. eigenvalues --    0.00677   0.01267   0.01817   0.01985   0.03061
 Alpha virt. eigenvalues --    0.04221   0.04597   0.05034   0.05483   0.06846
 Alpha virt. eigenvalues --    0.07856   0.08122   0.08241   0.09017   0.09371

 Mulliken atomic charges:
              1
     1  C   -0.492379
     2  C    0.160548
     3  N   -0.138736
     4  C   -0.201305
     5  C   -0.259964
     6  C   -0.119530
     7  C   -0.011244
     8  C   -0.204587
     9  H    0.179545
    10  H    0.174458
    11  H    0.170187
    12  H    0.161227
    13  H    0.163829
    14  H    0.173060
    15  H    0.173767
    16  H    0.169341
    17  H    0.176170
    18  H    0.178118
    19  O   -0.552469
    20  H    0.388951
    21  O   -0.553071
    22  H    0.389041
    23  C   -0.286789
    24  H    0.163703
    25  H    0.168006
    26  O   -0.545022
    27  H    0.375144
 Sum of Mulliken atomic charges =   0.00000

 Dipole moment (field-independent basis, Debye):
    X=              3.8241    Y=             -0.5223    Z=              2.4794  Tot=              4.5874
 Quadrupole moment (field-independent basis, Debye-Ang):
   XX=            -73.0881   YY=            -72.1272   ZZ=            -75.2201
   XY=             -3.6299   XZ=             -3.3898   YZ=             -3.9962

 Normal termination of Gaussian 09 at Fri May 17 12:21:33 2024.
