 Gaussian 09, Revision C.01,
 Gaussian 09:  AM64L-G09RevC.01 23-Sep-2011

 ------------------------------------------------
 # mpw1pw91/6-31+G** nmr scrf=(pcm,solvent=water)
 ------------------------------------------------

 99/9=1/99;
 -------
 comment
 -------
 Charge =  0 Multiplicity = 1

                         Standard orientation:
 ---------------------------------------------------------------------
 Center     Atomic      Atomic             Coordinates (Angstroms)
 Number     Number       Type             X           Y           Z
 ---------------------------------------------------------------------
      1          6           0        2.271456   -1.095825    0.214961
      2          6           0        1.276957   -0.150079   -0.477069
      3          7           0       -0.067825   -0.816830   -0.378856
      4          6           0        0.096936   -2.082647    0.362371
      5          6           0        1.564968   -2.459283    0.146874
      6          6           0       -1.038526    0.139501    0.182825
      7          6           0       -0.407128    1.512316   -0.104710
      8          6           0        1.084466    1.244966    0.119900
      9          1           0        3.255198   -1.093206   -0.263955
     10          1           0        2.405449   -0.799266    1.262588
     11          1           0        1.545472   -0.027995   -1.535829
     12          1           0       -0.590684   -2.853285   -0.004221
     13          1           0       -0.107870   -1.945230    1.437899
     14          1           0        1.698827   -2.912577   -0.842866
     15          1           0        1.926288   -3.171341    0.895224
     16          1           0       -1.118485    0.020837    1.279642
     17          1           0       -0.563207    1.789738   -1.154157
     18          1           0        1.265203    1.221736    1.206679
     19          8           0        1.953803    2.189035   -0.500241
     20          1           0        1.737940    3.057531   -0.119607
     21          8           0       -0.941223    2.591000    0.655264
     22          1           0       -0.820087    2.368150    1.595150
     23          6           0       -2.440713    0.006260   -0.400799
     24          1           0       -3.076461    0.792260    0.020686
     25          1           0       -2.405007    0.143985   -1.490702
     26          8           0       -3.076404   -1.234527   -0.071142
     27          1           0       -2.617699   -1.928863   -0.571704
 ---------------------------------------------------------------------

 SCF Done:  E(RmPW1PW91) =  -594.198935834     A.U. after   13 cycles

      1  C    Isotropic =   162.5970   Anisotropy =    25.5178

      2  C    Isotropic =   128.4730   Anisotropy =    53.7666

      3  N    Isotropic =   196.3248   Anisotropy =    90.7015

      4  C    Isotropic =   136.5317   Anisotropy =    56.8407

      5  C    Isotropic =   164.1918   Anisotropy =    23.8252

      6  C    Isotropic =   122.1220   Anisotropy =    37.8640

      7  C    Isotropic =   112.4655   Anisotropy =    37.9046

      8  C    Isotropic =   111.1223   Anisotropy =    16.3546

      9  H    Isotropic =    29.4998   Anisotropy =     9.7521

     10  H    Isotropic =    30.0565   Anisotropy =     8.3265

     11  H    Isotropic =    28.1522   Anisotropy =     7.0119

     12  H    Isotropic =    28.4122   Anisotropy =     8.3837

     13  H    Isotropic =    28.9739   Anisotropy =     7.5841

     14  H    Isotropic =    29.5053   Anisotropy =    10.6145

     15  H    Isotropic =    29.4777   Anisotropy =    11.4996

     16  H    Isotropic =    29.0155   Anisotropy =     4.8775

     17  H    Isotropic =    27.9618   Anisotropy =     1.1729

     18  H    Isotropic =    28.0066   Anisotropy =     2.8182

     19  O    Isotropic =   298.2914   Anisotropy =    39.1500

     20  H    Isotropic =    29.3603   Anisotropy =    18.2907

     21  O    Isotropic =   291.0119   Anisotropy =    89.0276

     22  H    Isotropic =    30.7850   Anisotropy =    15.3942

     23  C    Isotropic =   125.2870   Anisotropy =    49.3823

     24  H    Isotropic =    27.7453   Anisotropy =     5.2368

     25  H    Isotropic =    27.9482   Anisotropy =     5.4963

     26  O    Isotropic =   306.9611   Anisotropy =    22.1279

     27  H    Isotropic =    30.0636   Anisotropy =    14.7693

 The electronic state is 1-A.
 Alpha  occ. eigenvalues --  -19.26626 -19.26141 -19.25666 -14.41582 -10.30813
 Alpha  occ. eigenvalues --  -10.30570 -10.29508 -10.28267 -10.28061 -10.27157
 Alpha  occ. eigenvalues --  -10.24771 -10.24747  -1.07728  -1.05894  -1.05691
 Alpha  occ. eigenvalues --   -0.96864  -0.83295  -0.79618  -0.75495  -0.71715
 Alpha  occ. eigenvalues --   -0.66528  -0.63030  -0.60887  -0.57878  -0.56083
 Alpha  occ. eigenvalues --   -0.53476  -0.52178  -0.50279  -0.49914  -0.46964
 Alpha  occ. eigenvalues --   -0.45752  -0.44611  -0.43470  -0.42896  -0.40639
 Alpha  occ. eigenvalues --   -0.39672  -0.39190  -0.37846  -0.37076  -0.35958
 Alpha  occ. eigenvalues --   -0.34993  -0.34785  -0.33229  -0.32331  -0.30595
 Alpha  occ. eigenvalues --   -0.28093  -0.23266
 Alpha virt. eigenvalues --    0.00886   0.01065   0.01903   0.02273   0.03420
 Alpha virt. eigenvalues --    0.04209   0.04339   0.04903   0.05562   0.06860
 Alpha virt. eigenvalues --    0.07778   0.08078   0.08560   0.09155   0.09476

 Mulliken atomic charges:
              1
     1  C   -0.398215
     2  C   -0.080785
     3  N   -0.182793
     4  C   -0.203828
     5  C   -0.405489
     6  C    0.113095
     7  C   -0.163400
     8  C    0.036680
     9  H    0.179481
    10  H    0.170826
    11  H    0.171790
    12  H    0.157671
    13  H    0.156363
    14  H    0.180397
    15  H    0.178951
    16  H    0.156826
    17  H    0.187026
    18  H    0.164065
    19  O   -0.545399
    20  H    0.385877
    21  O   -0.522662
    22  H    0.375288
    23  C   -0.282790
    24  H    0.169096
    25  H    0.164198
    26  O   -0.535889
    27  H    0.373620
 Sum of Mulliken atomic charges =   0.00000

 Dipole moment (field-independent basis, Debye):
    X=              2.1432    Y=             -1.0273    Z=              2.1744  Tot=              3.2213
 Quadrupole moment (field-independent basis, Debye-Ang):
   XX=            -87.1785   YY=            -71.5679   ZZ=            -69.7222
   XY=             -3.4870   XZ=              5.1331   YZ=              5.2759

 Normal termination of Gaussian 09 at Fri May 17 12:21:19 2024.
