 Gaussian 09, Revision C.01,
 Gaussian 09:  AM64L-G09RevC.01 23-Sep-2011

 ------------------------------------------------
 # mpw1pw91/6-31+G** nmr scrf=(pcm,solvent=water)
 ------------------------------------------------

 99/9=1/99;
 -------
 comment
 -------
 Charge =  0 Multiplicity = 1

                         Standard orientation:
 ---------------------------------------------------------------------
 Center     Atomic      Atomic             Coordinates (Angstroms)
 Number     Number       Type             X           Y           Z
 ---------------------------------------------------------------------
      1          6           0        2.651363   -0.036843    0.096740
      2          6           0        1.340433    0.372277   -0.605111
      3          7           0        0.485306   -0.868586   -0.682360
      4          6           0        1.262093   -1.966113   -0.059739
      5          6           0        2.260493   -1.292818    0.889675
      6          6           0       -0.785476   -0.581019    0.018869
      7          6           0       -0.935403    0.933502   -0.116779
      8          6           0        0.490201    1.422188    0.134135
      9          1           0        3.416070   -0.287885   -0.647565
     10          1           0        3.046620    0.772734    0.719231
     11          1           0        1.543071    0.752006   -1.615181
     12          1           0        1.801539   -2.520540   -0.838872
     13          1           0        0.588762   -2.671880    0.435523
     14          1           0        3.114839   -1.931310    1.136616
     15          1           0        1.762737   -1.017029    1.827855
     16          1           0       -0.721867   -0.812403    1.096217
     17          1           0       -1.228888    1.190975   -1.146016
     18          1           0        0.682853    1.384922    1.212618
     19          8           0        0.745560    2.771683   -0.245587
     20          1           0        0.629447    2.828130   -1.210666
     21          8           0       -1.919967    1.416048    0.801840
     22          1           0       -2.084556    2.349234    0.583796
     23          6           0       -1.974737   -1.354324   -0.548597
     24          1           0       -2.116227   -1.090170   -1.607902
     25          1           0       -1.793534   -2.433462   -0.495049
     26          8           0       -3.165307   -1.097466    0.205197
     27          1           0       -3.174093   -0.136442    0.379152
 ---------------------------------------------------------------------

 SCF Done:  E(RmPW1PW91) =  -594.200128158     A.U. after   13 cycles

      1  C    Isotropic =   163.4103   Anisotropy =    24.2101

      2  C    Isotropic =   126.0877   Anisotropy =    55.7871

      3  N    Isotropic =   201.7389   Anisotropy =    66.2154

      4  C    Isotropic =   141.3596   Anisotropy =    53.3674

      5  C    Isotropic =   171.4250   Anisotropy =    19.5059

      6  C    Isotropic =   129.7505   Anisotropy =    48.3554

      7  C    Isotropic =   111.9826   Anisotropy =    26.9653

      8  C    Isotropic =   112.1883   Anisotropy =    27.0121

      9  H    Isotropic =    29.7798   Anisotropy =    11.7396

     10  H    Isotropic =    29.6961   Anisotropy =     9.3549

     11  H    Isotropic =    28.5862   Anisotropy =     6.9231

     12  H    Isotropic =    28.9463   Anisotropy =    11.9381

     13  H    Isotropic =    28.8371   Anisotropy =     8.4485

     14  H    Isotropic =    30.0467   Anisotropy =    12.6487

     15  H    Isotropic =    29.7949   Anisotropy =     8.7949

     16  H    Isotropic =    28.8779   Anisotropy =     4.9126

     17  H    Isotropic =    27.8180   Anisotropy =     2.1133

     18  H    Isotropic =    28.1018   Anisotropy =     3.3540

     19  O    Isotropic =   292.0891   Anisotropy =    90.8921

     20  H    Isotropic =    30.8499   Anisotropy =    16.2306

     21  O    Isotropic =   297.5464   Anisotropy =    36.1480

     22  H    Isotropic =    29.0094   Anisotropy =    19.5059

     23  C    Isotropic =   125.5796   Anisotropy =    58.7819

     24  H    Isotropic =    27.8684   Anisotropy =     4.1632

     25  H    Isotropic =    27.8394   Anisotropy =     4.4385

     26  O    Isotropic =   313.9665   Anisotropy =    40.1298

     27  H    Isotropic =    28.3871   Anisotropy =    19.4536

 The electronic state is 1-A.
 Alpha  occ. eigenvalues --  -19.27280 -19.26452 -19.24868 -14.41898 -10.31066
 Alpha  occ. eigenvalues --  -10.30611 -10.29401 -10.28490 -10.28218 -10.27073
 Alpha  occ. eigenvalues --  -10.24840 -10.24630  -1.08161  -1.06359  -1.04895
 Alpha  occ. eigenvalues --   -0.97086  -0.83121  -0.79694  -0.75318  -0.71764
 Alpha  occ. eigenvalues --   -0.67039  -0.62620  -0.60951  -0.58784  -0.56050
 Alpha  occ. eigenvalues --   -0.54334  -0.50683  -0.50265  -0.49759  -0.47856
 Alpha  occ. eigenvalues --   -0.45384  -0.44470  -0.44227  -0.42287  -0.40812
 Alpha  occ. eigenvalues --   -0.40321  -0.40054  -0.37008  -0.36843  -0.35925
 Alpha  occ. eigenvalues --   -0.35432  -0.34683  -0.33514  -0.33082  -0.29482
 Alpha  occ. eigenvalues --   -0.28385  -0.23817
 Alpha virt. eigenvalues --    0.00545   0.01468   0.01701   0.02327   0.03684
 Alpha virt. eigenvalues --    0.04036   0.04505   0.04786   0.05180   0.06884
 Alpha virt. eigenvalues --    0.07780   0.08286   0.08472   0.09347   0.09431

 Mulliken atomic charges:
              1
     1  C   -0.556971
     2  C    0.203728
     3  N   -0.149813
     4  C   -0.229226
     5  C   -0.224970
     6  C   -0.307689
     7  C    0.006751
     8  C   -0.150202
     9  H    0.180168
    10  H    0.180117
    11  H    0.159778
    12  H    0.167351
    13  H    0.167595
    14  H    0.175427
    15  H    0.175650
    16  H    0.185103
    17  H    0.182102
    18  H    0.185696
    19  O   -0.532257
    20  H    0.375071
    21  O   -0.573599
    22  H    0.398866
    23  C   -0.175207
    24  H    0.157480
    25  H    0.160865
    26  O   -0.553199
    27  H    0.391383
 Sum of Mulliken atomic charges =   0.00000

 Dipole moment (field-independent basis, Debye):
    X=              3.0449    Y=              1.4547    Z=             -1.7803  Tot=              3.8153
 Quadrupole moment (field-independent basis, Debye-Ang):
   XX=            -81.6928   YY=            -73.1977   ZZ=            -73.0998
   XY=            -12.8543   XZ=              3.5125   YZ=             -5.7899

 Normal termination of Gaussian 09 at Fri May 17 12:29:40 2024.
