 Gaussian 09, Revision C.01,
 Gaussian 09:  AM64L-G09RevC.01 23-Sep-2011

 ------------------------------------------------
 # mpw1pw91/6-31+G** nmr scrf=(pcm,solvent=water)
 ------------------------------------------------

 99/9=1/99;
 -------
 comment
 -------
 Charge =  0 Multiplicity = 1

                         Standard orientation:
 ---------------------------------------------------------------------
 Center     Atomic      Atomic             Coordinates (Angstroms)
 Number     Number       Type             X           Y           Z
 ---------------------------------------------------------------------
      1          6           0        2.370790    0.136358   -0.144537
      2          6           0        0.977221    0.133789   -0.791933
      3          7           0        0.220973   -0.999365   -0.136483
      4          6           0        1.154324   -1.683643    0.796900
      5          6           0        2.548290   -1.328579    0.277731
      6          6           0       -0.997993   -0.446502    0.502388
      7          6           0       -0.719438    1.052969    0.665315
      8          6           0        0.109716    1.395435   -0.572912
      9          1           0        3.145876    0.490447   -0.831101
     10          1           0        2.384632    0.784351    0.739103
     11          1           0        1.075978   -0.069380   -1.864463
     12          1           0        0.961313   -2.762099    0.814535
     13          1           0        1.033238   -1.307846    1.824464
     14          1           0        2.804487   -1.948961   -0.589912
     15          1           0        3.323751   -1.471290    1.036605
     16          1           0       -1.146620   -0.936424    1.470105
     17          1           0       -0.084141    1.207374    1.550063
     18          1           0       -0.569432    1.535085   -1.423800
     19          8           0        0.828893    2.607040   -0.340365
     20          1           0        1.207613    2.889362   -1.189552
     21          8           0       -1.924010    1.805055    0.793640
     22          1           0       -1.664956    2.741428    0.833778
     23          6           0       -2.220216   -0.767194   -0.369549
     24          1           0       -3.147648   -0.521866    0.155496
     25          1           0       -2.197477   -0.188873   -1.305141
     26          8           0       -2.242547   -2.167145   -0.650162
     27          1           0       -1.308285   -2.361145   -0.870112
 ---------------------------------------------------------------------

 SCF Done:  E(RmPW1PW91) =  -594.198306438     A.U. after   13 cycles

      1  C    Isotropic =   166.3158   Anisotropy =    18.8946

      2  C    Isotropic =   129.6967   Anisotropy =    52.1696

      3  N    Isotropic =   201.0787   Anisotropy =    76.3830

      4  C    Isotropic =   136.4098   Anisotropy =    59.1751

      5  C    Isotropic =   167.2043   Anisotropy =    19.6641

      6  C    Isotropic =   127.4239   Anisotropy =    40.7303

      7  C    Isotropic =   120.4070   Anisotropy =    51.3006

      8  C    Isotropic =   116.0479   Anisotropy =    33.0278

      9  H    Isotropic =    29.9285   Anisotropy =    10.9117

     10  H    Isotropic =    29.7982   Anisotropy =     6.9496

     11  H    Isotropic =    27.9962   Anisotropy =     8.1046

     12  H    Isotropic =    28.2719   Anisotropy =     9.5642

     13  H    Isotropic =    28.9731   Anisotropy =     8.6601

     14  H    Isotropic =    29.7763   Anisotropy =    11.0494

     15  H    Isotropic =    29.6539   Anisotropy =    11.7828

     16  H    Isotropic =    28.6301   Anisotropy =     6.2460

     17  H    Isotropic =    27.2186   Anisotropy =     3.7968

     18  H    Isotropic =    27.2422   Anisotropy =     3.5479

     19  O    Isotropic =   304.9729   Anisotropy =    57.1307

     20  H    Isotropic =    30.0420   Anisotropy =    20.4165

     21  O    Isotropic =   308.9430   Anisotropy =    36.3091

     22  H    Isotropic =    29.7393   Anisotropy =    18.6906

     23  C    Isotropic =   133.9843   Anisotropy =    50.1271

     24  H    Isotropic =    27.9826   Anisotropy =     6.0318

     25  H    Isotropic =    28.2275   Anisotropy =     6.0145

     26  O    Isotropic =   316.8079   Anisotropy =    33.9546

     27  H    Isotropic =    28.5048   Anisotropy =    16.8230

 The electronic state is 1-A.
 Alpha  occ. eigenvalues --  -19.26256 -19.26082 -19.24637 -14.42041 -10.30662
 Alpha  occ. eigenvalues --  -10.30521 -10.29020 -10.28289 -10.27973 -10.27152
 Alpha  occ. eigenvalues --  -10.24707 -10.24601  -1.07465  -1.05675  -1.05082
 Alpha  occ. eigenvalues --   -0.96647  -0.83026  -0.79204  -0.74995  -0.71801
 Alpha  occ. eigenvalues --   -0.66873  -0.61362  -0.60498  -0.58755  -0.55162
 Alpha  occ. eigenvalues --   -0.53693  -0.51580  -0.50219  -0.49022  -0.46732
 Alpha  occ. eigenvalues --   -0.46465  -0.45270  -0.44233  -0.41896  -0.40336
 Alpha  occ. eigenvalues --   -0.39823  -0.38047  -0.37580  -0.36890  -0.35654
 Alpha  occ. eigenvalues --   -0.34987  -0.34224  -0.33840  -0.30854  -0.29735
 Alpha  occ. eigenvalues --   -0.28691  -0.23880
 Alpha virt. eigenvalues --    0.00537   0.01148   0.01666   0.02114   0.03796
 Alpha virt. eigenvalues --    0.04413   0.04673   0.04876   0.05287   0.07196
 Alpha virt. eigenvalues --    0.08063   0.08338   0.08784   0.09099   0.09940

 Mulliken atomic charges:
              1
     1  C   -0.396311
     2  C   -0.076516
     3  N   -0.211169
     4  C   -0.206857
     5  C   -0.335337
     6  C   -0.076192
     7  C   -0.205844
     8  C   -0.065127
     9  H    0.177415
    10  H    0.185331
    11  H    0.174451
    12  H    0.168028
    13  H    0.164957
    14  H    0.178821
    15  H    0.178131
    16  H    0.180033
    17  H    0.177206
    18  H    0.179943
    19  O   -0.540347
    20  H    0.391628
    21  O   -0.521279
    22  H    0.384076
    23  C   -0.074449
    24  H    0.170345
    25  H    0.149257
    26  O   -0.532717
    27  H    0.382523
 Sum of Mulliken atomic charges =   0.00000

 Dipole moment (field-independent basis, Debye):
    X=              4.9999    Y=              2.4828    Z=             -0.8181  Tot=              5.6421
 Quadrupole moment (field-independent basis, Debye-Ang):
   XX=            -81.4237   YY=            -75.7171   ZZ=            -68.7205
   XY=             -7.6098   XZ=             -2.9023   YZ=             -7.0146

 Normal termination of Gaussian 09 at Fri May 17 12:45:28 2024.
