 Gaussian 09, Revision C.01,
 Gaussian 09:  AM64L-G09RevC.01 23-Sep-2011

 ------------------------------------------------
 # mpw1pw91/6-31+G** nmr scrf=(pcm,solvent=water)
 ------------------------------------------------

 99/9=1/99;
 -------
 comment
 -------
 Charge =  0 Multiplicity = 1

                         Standard orientation:
 ---------------------------------------------------------------------
 Center     Atomic      Atomic             Coordinates (Angstroms)
 Number     Number       Type             X           Y           Z
 ---------------------------------------------------------------------
      1          6           0       -2.217084    0.787339    0.051407
      2          6           0       -0.908725    0.364715    0.736261
      3          7           0       -0.558993   -0.972028    0.148886
      4          6           0       -1.755996   -1.482449   -0.569422
      5          6           0       -2.912250   -0.566175   -0.146189
      6          6           0        0.679345   -0.850390   -0.662786
      7          6           0        0.934302    0.673617   -0.775294
      8          6           0        0.322404    1.246409    0.500627
      9          1           0       -2.799134    1.492587    0.652365
     10          1           0       -2.014173    1.253147   -0.920263
     11          1           0       -1.095444    0.255383    1.811830
     12          1           0       -1.947212   -2.534268   -0.325272
     13          1           0       -1.603418   -1.423504   -1.656522
     14          1           0       -3.346652   -0.908991    0.800887
     15          1           0       -3.711762   -0.540891   -0.893016
     16          1           0        0.516557   -1.274870   -1.660831
     17          1           0        0.367988    1.061786   -1.632698
     18          1           0        1.043893    1.106060    1.315905
     19          8           0       -0.042967    2.622903    0.411849
     20          1           0        0.783062    3.120302    0.288863
     21          8           0        2.297853    1.080284   -0.879504
     22          1           0        2.610325    0.828202   -1.764224
     23          6           0        1.819409   -1.647411   -0.022300
     24          1           0        1.619144   -2.720239   -0.162344
     25          1           0        2.771552   -1.416553   -0.508527
     26          8           0        1.978846   -1.354411    1.367787
     27          1           0        1.079941   -1.438101    1.736771
 ---------------------------------------------------------------------

 SCF Done:  E(RmPW1PW91) =  -594.196016827     A.U. after   13 cycles

      1  C    Isotropic =   165.3797   Anisotropy =    14.9091

      2  C    Isotropic =   128.4398   Anisotropy =    51.4232

      3  N    Isotropic =   206.4125   Anisotropy =    66.2270

      4  C    Isotropic =   136.7856   Anisotropy =    64.3201

      5  C    Isotropic =   166.8709   Anisotropy =    22.9412

      6  C    Isotropic =   123.2468   Anisotropy =    48.9760

      7  C    Isotropic =   118.8051   Anisotropy =    43.4255

      8  C    Isotropic =   117.5676   Anisotropy =    41.0101

      9  H    Isotropic =    29.8293   Anisotropy =    10.5838

     10  H    Isotropic =    29.9737   Anisotropy =     7.0832

     11  H    Isotropic =    27.9921   Anisotropy =     8.0993

     12  H    Isotropic =    28.1459   Anisotropy =     9.9535

     13  H    Isotropic =    28.9639   Anisotropy =     8.7657

     14  H    Isotropic =    29.7766   Anisotropy =    11.2217

     15  H    Isotropic =    29.5653   Anisotropy =    11.6361

     16  H    Isotropic =    28.9236   Anisotropy =     4.9161

     17  H    Isotropic =    27.2242   Anisotropy =     3.8969

     18  H    Isotropic =    27.0020   Anisotropy =     5.1981

     19  O    Isotropic =   300.4047   Anisotropy =    32.8062

     20  H    Isotropic =    29.4261   Anisotropy =    19.1226

     21  O    Isotropic =   302.5298   Anisotropy =    54.6933

     22  H    Isotropic =    30.0457   Anisotropy =    20.7183

     23  C    Isotropic =   133.7572   Anisotropy =    52.1471

     24  H    Isotropic =    28.1085   Anisotropy =     9.4286

     25  H    Isotropic =    27.8129   Anisotropy =     6.0593

     26  O    Isotropic =   315.1782   Anisotropy =    34.9806

     27  H    Isotropic =    29.4877   Anisotropy =    14.3959

 The electronic state is 1-A.
 Alpha  occ. eigenvalues --  -19.26135 -19.25785 -19.24886 -14.41764 -10.30294
 Alpha  occ. eigenvalues --  -10.30185 -10.28951 -10.28100 -10.27942 -10.27085
 Alpha  occ. eigenvalues --  -10.24630 -10.24483  -1.07282  -1.05513  -1.05090
 Alpha  occ. eigenvalues --   -0.96469  -0.82611  -0.79399  -0.75058  -0.71742
 Alpha  occ. eigenvalues --   -0.66694  -0.61288  -0.60669  -0.57819  -0.55613
 Alpha  occ. eigenvalues --   -0.53314  -0.50841  -0.49882  -0.49426  -0.48049
 Alpha  occ. eigenvalues --   -0.45883  -0.45094  -0.43012  -0.41835  -0.40222
 Alpha  occ. eigenvalues --   -0.39551  -0.38718  -0.37606  -0.37092  -0.35654
 Alpha  occ. eigenvalues --   -0.34795  -0.33884  -0.33253  -0.31071  -0.29232
 Alpha  occ. eigenvalues --   -0.28883  -0.23333
 Alpha virt. eigenvalues --    0.00621   0.00927   0.01843   0.02235   0.03839
 Alpha virt. eigenvalues --    0.04144   0.04512   0.04620   0.05301   0.07173
 Alpha virt. eigenvalues --    0.07714   0.08249   0.08749   0.09375   0.09577

 Mulliken atomic charges:
              1
     1  C   -0.352865
     2  C   -0.103351
     3  N   -0.171931
     4  C   -0.249298
     5  C   -0.354300
     6  C    0.100747
     7  C   -0.111312
     8  C   -0.116878
     9  H    0.176925
    10  H    0.175990
    11  H    0.173501
    12  H    0.162422
    13  H    0.156892
    14  H    0.178105
    15  H    0.178657
    16  H    0.164931
    17  H    0.178506
    18  H    0.186096
    19  O   -0.537491
    20  H    0.383728
    21  O   -0.564892
    22  H    0.390943
    23  C   -0.194288
    24  H    0.152269
    25  H    0.160307
    26  O   -0.548671
    27  H    0.385258
 Sum of Mulliken atomic charges =   0.00000

 Dipole moment (field-independent basis, Debye):
    X=             -1.9839    Y=             -1.1397    Z=             -4.0570  Tot=              4.6577
 Quadrupole moment (field-independent basis, Debye-Ang):
   XX=            -76.2385   YY=            -76.4827   ZZ=            -68.1234
   XY=              5.1541   XZ=             -8.5739   YZ=              2.1663

 Normal termination of Gaussian 09 at Fri May 17 12:46:42 2024.
