 Gaussian 09, Revision C.01,
 Gaussian 09:  AM64L-G09RevC.01 23-Sep-2011

 ------------------------------------------------
 # mpw1pw91/6-31+G** nmr scrf=(pcm,solvent=water)
 ------------------------------------------------

 99/9=1/99;
 -------
 comment
 -------
 Charge =  0 Multiplicity = 1

                         Standard orientation:
 ---------------------------------------------------------------------
 Center     Atomic      Atomic             Coordinates (Angstroms)
 Number     Number       Type             X           Y           Z
 ---------------------------------------------------------------------
      1          6           0        2.460185    0.191022    0.199906
      2          6           0        1.270553    0.281619   -0.807529
      3          7           0        0.487445   -0.987744   -0.684796
      4          6           0        1.421047   -1.956533   -0.076961
      5          6           0        2.261398   -1.155259    0.925948
      6          6           0       -0.720494   -0.721361    0.148206
      7          6           0       -0.636973    0.769711    0.560133
      8          6           0        0.237348    1.378232   -0.537138
      9          1           0        3.407288    0.198143   -0.349793
     10          1           0        2.478967    1.038825    0.889567
     11          1           0        1.663146    0.373664   -1.825118
     12          1           0        2.064527   -2.365484   -0.867100
     13          1           0        0.868873   -2.791779    0.362378
     14          1           0        3.205187   -1.647385    1.183114
     15          1           0        1.693884   -1.012701    1.853778
     16          1           0       -0.720584   -1.358039    1.040573
     17          1           0       -0.092502    0.848007    1.512666
     18          1           0       -0.386449    1.518036   -1.431740
     19          8           0        0.858773    2.613459   -0.190201
     20          1           0        0.144769    3.262575   -0.072534
     21          8           0       -1.883477    1.457018    0.677568
     22          1           0       -2.582416    0.769157    0.710122
     23          6           0       -1.986232   -1.056853   -0.642220
     24          1           0       -2.105077   -0.379439   -1.496824
     25          1           0       -1.921023   -2.083039   -1.024330
     26          8           0       -3.107114   -0.935071    0.258284
     27          1           0       -3.917155   -0.923056   -0.278458
 ---------------------------------------------------------------------

 SCF Done:  E(RmPW1PW91) =  -594.195398563     A.U. after   13 cycles

      1  C    Isotropic =   169.2783   Anisotropy =    25.1380

      2  C    Isotropic =   129.5449   Anisotropy =    61.5406

      3  N    Isotropic =   193.2438   Anisotropy =    56.0604

      4  C    Isotropic =   138.6444   Anisotropy =    57.2399

      5  C    Isotropic =   169.2676   Anisotropy =    20.0286

      6  C    Isotropic =   130.4518   Anisotropy =    59.5448

      7  C    Isotropic =   117.1157   Anisotropy =    44.9752

      8  C    Isotropic =   114.6649   Anisotropy =    36.8744

      9  H    Isotropic =    30.0846   Anisotropy =    12.3239

     10  H    Isotropic =    29.5218   Anisotropy =     7.5564

     11  H    Isotropic =    28.0586   Anisotropy =     8.9747

     12  H    Isotropic =    28.8400   Anisotropy =    11.9580

     13  H    Isotropic =    28.7043   Anisotropy =     9.5977

     14  H    Isotropic =    29.9790   Anisotropy =    12.4882

     15  H    Isotropic =    30.0494   Anisotropy =     8.8102

     16  H    Isotropic =    28.7195   Anisotropy =     4.4506

     17  H    Isotropic =    27.4766   Anisotropy =     4.8441

     18  H    Isotropic =    27.0883   Anisotropy =     3.0812

     19  O    Isotropic =   303.7150   Anisotropy =    39.2731

     20  H    Isotropic =    29.4488   Anisotropy =    19.0893

     21  O    Isotropic =   310.7482   Anisotropy =    37.8253

     22  H    Isotropic =    26.1208   Anisotropy =    24.7103

     23  C    Isotropic =   128.2105   Anisotropy =    72.6115

     24  H    Isotropic =    27.6444   Anisotropy =     2.4166

     25  H    Isotropic =    27.7932   Anisotropy =     5.0079

     26  O    Isotropic =   308.7375   Anisotropy =    83.4759

     27  H    Isotropic =    29.9719   Anisotropy =    21.1825

 The electronic state is 1-A.
 Alpha  occ. eigenvalues --  -19.27246 -19.25881 -19.24587 -14.41828 -10.30159
 Alpha  occ. eigenvalues --  -10.30138 -10.30079 -10.28658 -10.27837 -10.26960
 Alpha  occ. eigenvalues --  -10.24359 -10.24269  -1.07638  -1.06502  -1.04402
 Alpha  occ. eigenvalues --   -0.96989  -0.82247  -0.79312  -0.75628  -0.71621
 Alpha  occ. eigenvalues --   -0.66971  -0.61661  -0.60104  -0.58356  -0.54817
 Alpha  occ. eigenvalues --   -0.54020  -0.53027  -0.50191  -0.48706  -0.47484
 Alpha  occ. eigenvalues --   -0.46623  -0.44149  -0.44004  -0.41897  -0.41482
 Alpha  occ. eigenvalues --   -0.39774  -0.38325  -0.37651  -0.36347  -0.35524
 Alpha  occ. eigenvalues --   -0.35198  -0.33882  -0.33522  -0.31770  -0.29869
 Alpha  occ. eigenvalues --   -0.27823  -0.24031
 Alpha virt. eigenvalues --    0.00513   0.01196   0.01624   0.02015   0.03819
 Alpha virt. eigenvalues --    0.04328   0.04440   0.05069   0.05290   0.06750
 Alpha virt. eigenvalues --    0.07923   0.08094   0.08648   0.09377   0.09443

 Mulliken atomic charges:
              1
     1  C   -0.429659
     2  C    0.001469
     3  N   -0.059959
     4  C   -0.234965
     5  C   -0.213881
     6  C   -0.497312
     7  C   -0.044950
     8  C   -0.120100
     9  H    0.173389
    10  H    0.187805
    11  H    0.175017
    12  H    0.168338
    13  H    0.169207
    14  H    0.172243
    15  H    0.172465
    16  H    0.178806
    17  H    0.172567
    18  H    0.172081
    19  O   -0.538817
    20  H    0.386046
    21  O   -0.570709
    22  H    0.409022
    23  C    0.026331
    24  H    0.177009
    25  H    0.174450
    26  O   -0.618052
    27  H    0.412159
 Sum of Mulliken atomic charges =   0.00000

 Dipole moment (field-independent basis, Debye):
    X=             -1.2920    Y=             -2.7239    Z=             -1.1761  Tot=              3.2361
 Quadrupole moment (field-independent basis, Debye-Ang):
   XX=            -65.0153   YY=            -75.5058   ZZ=            -74.4618
   XY=             -1.1716   XZ=              7.0897   YZ=             -1.8528

 Normal termination of Gaussian 09 at Fri May 17 12:36:49 2024.
