 Gaussian 09, Revision C.01,
 Gaussian 09:  AM64L-G09RevC.01 23-Sep-2011

 ------------------------------------------------
 # mpw1pw91/6-31+G** nmr scrf=(pcm,solvent=water)
 ------------------------------------------------

 99/9=1/99;
 -------
 comment
 -------
 Charge =  0 Multiplicity = 1

                         Standard orientation:
 ---------------------------------------------------------------------
 Center     Atomic      Atomic             Coordinates (Angstroms)
 Number     Number       Type             X           Y           Z
 ---------------------------------------------------------------------
      1          6           0       -2.309385    0.699301    0.063053
      2          6           0       -0.975705    0.368440    0.748486
      3          7           0       -0.586116   -0.996660    0.257271
      4          6           0       -1.767788   -1.570860   -0.441177
      5          6           0       -2.953474   -0.688704   -0.038216
      6          6           0        0.634770   -0.898874   -0.578489
      7          6           0        0.876968    0.620406   -0.787352
      8          6           0        0.214948    1.276516    0.432162
      9          1           0       -2.906488    1.420207    0.629820
     10          1           0       -2.139931    1.110618   -0.939271
     11          1           0       -1.141761    0.332852    1.832850
     12          1           0       -1.920726   -2.623133   -0.172660
     13          1           0       -1.628707   -1.534602   -1.532177
     14          1           0       -3.347342   -0.995921    0.938642
     15          1           0       -3.771591   -0.742345   -0.763307
     16          1           0        0.449561   -1.383259   -1.544861
     17          1           0        0.351675    0.955492   -1.687626
     18          1           0        0.932085    1.251738    1.263494
     19          8           0       -0.208527    2.621820    0.209341
     20          1           0        0.593168    3.132170    0.003624
     21          8           0        2.239625    1.004550   -0.967862
     22          1           0        2.704155    0.670354   -0.174725
     23          6           0        1.852304   -1.615821    0.000586
     24          1           0        1.579030   -2.638407    0.290226
     25          1           0        2.626863   -1.682027   -0.774996
     26          8           0        2.358959   -0.888841    1.134039
     27          1           0        3.166532   -1.339777    1.431609
 ---------------------------------------------------------------------

 SCF Done:  E(RmPW1PW91) =  -594.195353849     A.U. after   13 cycles

      1  C    Isotropic =   165.8450   Anisotropy =    15.1369

      2  C    Isotropic =   129.6781   Anisotropy =    49.7626

      3  N    Isotropic =   198.6107   Anisotropy =    68.4343

      4  C    Isotropic =   135.3772   Anisotropy =    64.1962

      5  C    Isotropic =   166.9075   Anisotropy =    22.0791

      6  C    Isotropic =   124.7164   Anisotropy =    51.0303

      7  C    Isotropic =   116.4473   Anisotropy =    44.3976

      8  C    Isotropic =   114.0471   Anisotropy =    36.7458

      9  H    Isotropic =    29.8918   Anisotropy =    10.4865

     10  H    Isotropic =    29.9890   Anisotropy =     7.0386

     11  H    Isotropic =    27.9987   Anisotropy =     8.2655

     12  H    Isotropic =    28.1541   Anisotropy =     9.6897

     13  H    Isotropic =    29.1367   Anisotropy =     8.3867

     14  H    Isotropic =    29.8452   Anisotropy =    11.1117

     15  H    Isotropic =    29.6239   Anisotropy =    11.6618

     16  H    Isotropic =    28.8456   Anisotropy =     4.5830

     17  H    Isotropic =    27.3661   Anisotropy =     2.7816

     18  H    Isotropic =    27.1627   Anisotropy =     4.7648

     19  O    Isotropic =   300.8265   Anisotropy =    32.5194

     20  H    Isotropic =    29.4045   Anisotropy =    18.7125

     21  O    Isotropic =   298.0087   Anisotropy =    64.9340

     22  H    Isotropic =    28.5932   Anisotropy =    17.2233

     23  C    Isotropic =   128.2331   Anisotropy =    46.9179

     24  H    Isotropic =    27.7125   Anisotropy =     7.4739

     25  H    Isotropic =    27.5602   Anisotropy =     6.7536

     26  O    Isotropic =   311.1929   Anisotropy =    90.9395

     27  H    Isotropic =    30.1588   Anisotropy =    22.4571

 The electronic state is 1-A.
 Alpha  occ. eigenvalues --  -19.26449 -19.25695 -19.25344 -14.41178 -10.30130
 Alpha  occ. eigenvalues --  -10.29919 -10.29718 -10.28274 -10.27609 -10.26848
 Alpha  occ. eigenvalues --  -10.24489 -10.24322  -1.07321  -1.06146  -1.04823
 Alpha  occ. eigenvalues --   -0.96185  -0.82580  -0.79017  -0.75361  -0.71583
 Alpha  occ. eigenvalues --   -0.66788  -0.61269  -0.60510  -0.57303  -0.55677
 Alpha  occ. eigenvalues --   -0.53086  -0.52881  -0.50838  -0.48436  -0.47156
 Alpha  occ. eigenvalues --   -0.46073  -0.43549  -0.43061  -0.42126  -0.41214
 Alpha  occ. eigenvalues --   -0.39634  -0.38089  -0.37746  -0.37073  -0.35482
 Alpha  occ. eigenvalues --   -0.34689  -0.34105  -0.33408  -0.31533  -0.30358
 Alpha  occ. eigenvalues --   -0.27865  -0.22855
 Alpha virt. eigenvalues --    0.00548   0.01539   0.01729   0.02066   0.03491
 Alpha virt. eigenvalues --    0.04333   0.04672   0.04866   0.05237   0.07054
 Alpha virt. eigenvalues --    0.07553   0.08304   0.08656   0.09365   0.09625

 Mulliken atomic charges:
              1
     1  C   -0.345297
     2  C   -0.147231
     3  N   -0.077027
     4  C   -0.183408
     5  C   -0.370681
     6  C    0.012446
     7  C   -0.155755
     8  C   -0.044901
     9  H    0.174729
    10  H    0.176637
    11  H    0.168467
    12  H    0.160845
    13  H    0.153870
    14  H    0.176877
    15  H    0.177141
    16  H    0.163386
    17  H    0.185840
    18  H    0.176483
    19  O   -0.532686
    20  H    0.382672
    21  O   -0.540959
    22  H    0.389490
    23  C   -0.198107
    24  H    0.169108
    25  H    0.169125
    26  O   -0.660556
    27  H    0.419494
 Sum of Mulliken atomic charges =   0.00000

 Dipole moment (field-independent basis, Debye):
    X=              1.2566    Y=             -2.9909    Z=             -0.3321  Tot=              3.2611
 Quadrupole moment (field-independent basis, Debye-Ang):
   XX=            -63.6457   YY=            -72.8128   ZZ=            -74.8596
   XY=             -3.1326   XZ=              6.5697   YZ=              2.5114

 Normal termination of Gaussian 09 at Fri May 17 12:42:54 2024.
