 Gaussian 09, Revision C.01,
 Gaussian 09:  AM64L-G09RevC.01 23-Sep-2011

 ------------------------------------------------
 # mpw1pw91/6-31+G** nmr scrf=(pcm,solvent=water)
 ------------------------------------------------

 99/9=1/99;
 -------
 comment
 -------
 Charge =  0 Multiplicity = 1

                         Standard orientation:
 ---------------------------------------------------------------------
 Center     Atomic      Atomic             Coordinates (Angstroms)
 Number     Number       Type             X           Y           Z
 ---------------------------------------------------------------------
      1          6           0        2.367457    0.215276   -0.113518
      2          6           0        0.984307    0.170757   -0.784263
      3          7           0        0.255452   -0.987043   -0.144855
      4          6           0        1.205785   -1.666171    0.775680
      5          6           0        2.591599   -1.251930    0.278267
      6          6           0       -0.977162   -0.473695    0.501718
      7          6           0       -0.746496    1.040383    0.657651
      8          6           0        0.076249    1.396602   -0.581235
      9          1           0        3.138377    0.613457   -0.779950
     10          1           0        2.343271    0.841071    0.785619
     11          1           0        1.111797   -0.026499   -1.854620
     12          1           0        1.048076   -2.750410    0.762294
     13          1           0        1.064845   -1.323572    1.811982
     14          1           0        2.877518   -1.843527   -0.600188
     15          1           0        3.364399   -1.384280    1.041606
     16          1           0       -1.102666   -0.966077    1.471960
     17          1           0       -0.130592    1.224888    1.548154
     18          1           0       -0.612508    1.496278   -1.431924
     19          8           0        0.842328    2.592997   -0.452666
     20          1           0        0.204486    3.318388   -0.341860
     21          8           0       -1.924671    1.846669    0.702849
     22          1           0       -2.348237    1.697008    1.564802
     23          6           0       -2.194701   -0.832089   -0.360185
     24          1           0       -3.125101   -0.621988    0.175400
     25          1           0       -2.201733   -0.246559   -1.291640
     26          8           0       -2.171425   -2.230137   -0.651890
     27          1           0       -1.232181   -2.389912   -0.878677
 ---------------------------------------------------------------------

 SCF Done:  E(RmPW1PW91) =  -594.198184321     A.U. after   13 cycles

      1  C    Isotropic =   166.1118   Anisotropy =    18.0024

      2  C    Isotropic =   130.8225   Anisotropy =    53.1737

      3  N    Isotropic =   201.7471   Anisotropy =    75.0209

      4  C    Isotropic =   136.3762   Anisotropy =    59.5895

      5  C    Isotropic =   167.2027   Anisotropy =    19.7987

      6  C    Isotropic =   125.9335   Anisotropy =    41.1912

      7  C    Isotropic =   118.9943   Anisotropy =    45.3525

      8  C    Isotropic =   117.5139   Anisotropy =    37.9520

      9  H    Isotropic =    29.8275   Anisotropy =    10.8305

     10  H    Isotropic =    29.7519   Anisotropy =     7.0981

     11  H    Isotropic =    27.8839   Anisotropy =     8.4782

     12  H    Isotropic =    28.2763   Anisotropy =     9.4981

     13  H    Isotropic =    28.9873   Anisotropy =     8.7327

     14  H    Isotropic =    29.7799   Anisotropy =    11.0868

     15  H    Isotropic =    29.6450   Anisotropy =    11.7933

     16  H    Isotropic =    28.7651   Anisotropy =     6.0404

     17  H    Isotropic =    27.2606   Anisotropy =     3.9562

     18  H    Isotropic =    27.1877   Anisotropy =     3.5195

     19  O    Isotropic =   304.5459   Anisotropy =    37.4013

     20  H    Isotropic =    29.5747   Anisotropy =    19.3820

     21  O    Isotropic =   309.5540   Anisotropy =    67.6223

     22  H    Isotropic =    30.0992   Anisotropy =    20.3206

     23  C    Isotropic =   133.7357   Anisotropy =    50.1534

     24  H    Isotropic =    28.0646   Anisotropy =     6.0186

     25  H    Isotropic =    28.2831   Anisotropy =     6.0024

     26  O    Isotropic =   317.0358   Anisotropy =    34.4358

     27  H    Isotropic =    28.5413   Anisotropy =    16.8447

 The electronic state is 1-A.
 Alpha  occ. eigenvalues --  -19.26359 -19.25974 -19.24646 -14.42061 -10.30604
 Alpha  occ. eigenvalues --  -10.30568 -10.29044 -10.28142 -10.28139 -10.27158
 Alpha  occ. eigenvalues --  -10.24701 -10.24598  -1.07448  -1.05658  -1.05086
 Alpha  occ. eigenvalues --   -0.96664  -0.82939  -0.79399  -0.74914  -0.71779
 Alpha  occ. eigenvalues --   -0.66868  -0.61282  -0.61092  -0.57857  -0.55861
 Alpha  occ. eigenvalues --   -0.53352  -0.51481  -0.49908  -0.49498  -0.47283
 Alpha  occ. eigenvalues --   -0.46566  -0.44443  -0.44104  -0.42275  -0.40113
 Alpha  occ. eigenvalues --   -0.39440  -0.38857  -0.37602  -0.36590  -0.35770
 Alpha  occ. eigenvalues --   -0.34755  -0.34339  -0.33847  -0.31077  -0.29390
 Alpha  occ. eigenvalues --   -0.28963  -0.23803
 Alpha virt. eigenvalues --    0.00739   0.00902   0.01654   0.02085   0.03891
 Alpha virt. eigenvalues --    0.04419   0.04510   0.04843   0.05416   0.07337
 Alpha virt. eigenvalues --    0.07997   0.08302   0.08664   0.09453   0.09739

 Mulliken atomic charges:
              1
     1  C   -0.379514
     2  C   -0.123020
     3  N   -0.206406
     4  C   -0.199646
     5  C   -0.340210
     6  C   -0.047872
     7  C   -0.211632
     8  C   -0.023180
     9  H    0.177179
    10  H    0.182325
    11  H    0.174968
    12  H    0.167641
    13  H    0.164574
    14  H    0.178925
    15  H    0.178391
    16  H    0.179154
    17  H    0.182130
    18  H    0.174109
    19  O   -0.536010
    20  H    0.384977
    21  O   -0.538666
    22  H    0.392194
    23  C   -0.095851
    24  H    0.166709
    25  H    0.150501
    26  O   -0.535220
    27  H    0.383447
 Sum of Mulliken atomic charges =   0.00000

 Dipole moment (field-independent basis, Debye):
    X=              1.5835    Y=              1.2696    Z=              2.8905  Tot=              3.5319
 Quadrupole moment (field-independent basis, Debye-Ang):
   XX=            -77.9828   YY=            -80.8279   ZZ=            -67.5742
   XY=            -12.3943   XZ=             -5.0580   YZ=             -0.1346

 Normal termination of Gaussian 09 at Fri May 17 12:48:48 2024.
