 Gaussian 09, Revision C.01,
 Gaussian 09:  AM64L-G09RevC.01 23-Sep-2011

 ------------------------------------------------
 # mpw1pw91/6-31+G** nmr scrf=(pcm,solvent=water)
 ------------------------------------------------

 99/9=1/99;
 -------
 comment
 -------
 Charge =  0 Multiplicity = 1

                         Standard orientation:
 ---------------------------------------------------------------------
 Center     Atomic      Atomic             Coordinates (Angstroms)
 Number     Number       Type             X           Y           Z
 ---------------------------------------------------------------------
      1          6           0        2.446985    0.001124   -0.548300
      2          6           0        0.963643    0.340389   -0.768140
      3          7           0        0.183204   -0.779308   -0.129046
      4          6           0        1.140765   -1.680434    0.541738
      5          6           0        2.430208   -1.511434   -0.264324
      6          6           0       -0.851617   -0.187581    0.741876
      7          6           0       -1.035400    1.243224    0.201545
      8          6           0        0.404452    1.643598   -0.151847
      9          1           0        3.067630    0.273173   -1.407066
     10          1           0        2.834863    0.529214    0.329676
     11          1           0        0.736847    0.361568   -1.840813
     12          1           0        0.776692   -2.713999    0.550794
     13          1           0        1.305019   -1.378883    1.590660
     14          1           0        2.367298   -2.077809   -1.201314
     15          1           0        3.313221   -1.857263    0.282068
     16          1           0       -0.493579   -0.099375    1.781115
     17          1           0       -1.456569    1.905957    0.968624
     18          1           0        0.423134    2.475005   -0.866634
     19          8           0        1.036009    2.025851    1.073735
     20          1           0        1.925867    2.347374    0.855865
     21          8           0       -1.828609    1.313505   -0.988042
     22          1           0       -2.336711    0.476345   -1.043117
     23          6           0       -2.118255   -1.043048    0.770136
     24          1           0       -1.912921   -2.002038    1.264073
     25          1           0       -2.913341   -0.537675    1.326273
     26          8           0       -2.626363   -1.275666   -0.555840
     27          1           0       -1.852859   -1.590989   -1.061805
 ---------------------------------------------------------------------

 SCF Done:  E(RmPW1PW91) =  -594.201957936     A.U. after   13 cycles

      1  C    Isotropic =   171.0128   Anisotropy =    19.1177

      2  C    Isotropic =   125.0560   Anisotropy =    58.2504

      3  N    Isotropic =   195.9242   Anisotropy =    75.8899

      4  C    Isotropic =   139.8622   Anisotropy =    54.6028

      5  C    Isotropic =   162.9873   Anisotropy =    25.6048

      6  C    Isotropic =   126.9443   Anisotropy =    47.4897

      7  C    Isotropic =   108.5997   Anisotropy =    26.9070

      8  C    Isotropic =   117.4130   Anisotropy =    34.8493

      9  H    Isotropic =    29.9001   Anisotropy =    11.6563

     10  H    Isotropic =    29.9190   Anisotropy =     7.3013

     11  H    Isotropic =    27.5515   Anisotropy =     7.3168

     12  H    Isotropic =    28.3714   Anisotropy =     9.6733

     13  H    Isotropic =    29.2848   Anisotropy =     8.5115

     14  H    Isotropic =    29.3114   Anisotropy =    10.5369

     15  H    Isotropic =    29.4034   Anisotropy =    11.7554

     16  H    Isotropic =    28.7854   Anisotropy =     4.8682

     17  H    Isotropic =    26.9767   Anisotropy =     5.3606

     18  H    Isotropic =    27.7277   Anisotropy =     6.6619

     19  O    Isotropic =   292.1293   Anisotropy =    48.1575

     20  H    Isotropic =    30.1303   Anisotropy =    19.0179

     21  O    Isotropic =   300.4215   Anisotropy =    51.3816

     22  H    Isotropic =    26.3732   Anisotropy =    24.8061

     23  C    Isotropic =   132.3844   Anisotropy =    57.6789

     24  H    Isotropic =    27.5506   Anisotropy =     7.9629

     25  H    Isotropic =    27.5738   Anisotropy =     6.8879

     26  O    Isotropic =   314.2004   Anisotropy =    31.9805

     27  H    Isotropic =    28.4967   Anisotropy =    14.9307

 The electronic state is 1-A.
 Alpha  occ. eigenvalues --  -19.26710 -19.25929 -19.24488 -14.41580 -10.30393
 Alpha  occ. eigenvalues --  -10.30279 -10.30169 -10.28396 -10.27709 -10.27000
 Alpha  occ. eigenvalues --  -10.24790 -10.24761  -1.07552  -1.06468  -1.04482
 Alpha  occ. eigenvalues --   -0.96285  -0.82950  -0.79071  -0.75543  -0.72188
 Alpha  occ. eigenvalues --   -0.66921  -0.60862  -0.60489  -0.58037  -0.56361
 Alpha  occ. eigenvalues --   -0.53783  -0.51389  -0.50119  -0.48884  -0.46817
 Alpha  occ. eigenvalues --   -0.45754  -0.45518  -0.44912  -0.42126  -0.40699
 Alpha  occ. eigenvalues --   -0.39891  -0.38995  -0.36887  -0.36613  -0.35785
 Alpha  occ. eigenvalues --   -0.35624  -0.34414  -0.33447  -0.30949  -0.29829
 Alpha  occ. eigenvalues --   -0.28901  -0.23564
 Alpha virt. eigenvalues --    0.00636   0.01398   0.01812   0.02516   0.03953
 Alpha virt. eigenvalues --    0.04391   0.04729   0.05252   0.05555   0.07028
 Alpha virt. eigenvalues --    0.07549   0.07971   0.08619   0.09124   0.09664

 Mulliken atomic charges:
              1
     1  C   -0.457468
     2  C   -0.001288
     3  N   -0.273480
     4  C   -0.289099
     5  C   -0.327952
     6  C    0.421296
     7  C   -0.400275
     8  C    0.193836
     9  H    0.178870
    10  H    0.157953
    11  H    0.171707
    12  H    0.167490
    13  H    0.150982
    14  H    0.179221
    15  H    0.176572
    16  H    0.169918
    17  H    0.167249
    18  H    0.169138
    19  O   -0.579607
    20  H    0.383341
    21  O   -0.558500
    22  H    0.408169
    23  C   -0.370958
    24  H    0.168308
    25  H    0.177371
    26  O   -0.592141
    27  H    0.409347
 Sum of Mulliken atomic charges =   0.00000

 Dipole moment (field-independent basis, Debye):
    X=              4.3495    Y=             -1.6511    Z=              1.2520  Tot=              4.8179
 Quadrupole moment (field-independent basis, Debye-Ang):
   XX=            -73.8770   YY=            -73.5437   ZZ=            -74.4899
   XY=              3.9172   XZ=             -6.8710   YZ=             -1.2539

 Normal termination of Gaussian 09 at Fri May 17 12:58:48 2024.
