 Gaussian 09, Revision C.01,
 Gaussian 09:  AM64L-G09RevC.01 23-Sep-2011

 ------------------------------------------------
 # mpw1pw91/6-31+G** nmr scrf=(pcm,solvent=water)
 ------------------------------------------------

 99/9=1/99;
 -------
 comment
 -------
 Charge =  0 Multiplicity = 1

                         Standard orientation:
 ---------------------------------------------------------------------
 Center     Atomic      Atomic             Coordinates (Angstroms)
 Number     Number       Type             X           Y           Z
 ---------------------------------------------------------------------
      1          6           0        2.384392   -0.605739   -0.553124
      2          6           0        1.141221    0.264860   -0.827502
      3          7           0       -0.060312   -0.615451   -0.607864
      4          6           0        0.433145   -1.954025   -0.212033
      5          6           0        1.855149   -1.749691    0.327724
      6          6           0       -0.956162    0.049421    0.366579
      7          6           0       -0.596406    1.540573    0.245499
      8          6           0        0.935816    1.496521    0.086912
      9          1           0        2.771923   -1.005614   -1.496696
     10          1           0        3.185213   -0.033811   -0.076606
     11          1           0        1.151131    0.622253   -1.864604
     12          1           0        0.458696   -2.611353   -1.091860
     13          1           0       -0.246153   -2.408660    0.513912
     14          1           0        2.466144   -2.656309    0.267603
     15          1           0        1.820362   -1.439139    1.379148
     16          1           0       -0.728737   -0.266610    1.400233
     17          1           0       -0.891711    2.109140    1.130220
     18          1           0        1.309387    2.412413   -0.377407
     19          8           0        1.596484    1.424954    1.354930
     20          1           0        1.243413    0.668038    1.852265
     21          8           0       -1.227590    2.194336   -0.862756
     22          1           0       -1.043221    1.675518   -1.664312
     23          6           0       -2.437738   -0.239849    0.128676
     24          1           0       -3.037179    0.379296    0.804928
     25          1           0       -2.712090    0.015265   -0.901916
     26          8           0       -2.801783   -1.596016    0.418321
     27          1           0       -2.418377   -2.150884   -0.280216
 ---------------------------------------------------------------------

 SCF Done:  E(RmPW1PW91) =  -594.192649897     A.U. after   13 cycles

      1  C    Isotropic =   168.7802   Anisotropy =    23.6484

      2  C    Isotropic =   126.8688   Anisotropy =    62.5978

      3  N    Isotropic =   192.2864   Anisotropy =    79.5941

      4  C    Isotropic =   141.2521   Anisotropy =    56.7400

      5  C    Isotropic =   167.8468   Anisotropy =    25.0131

      6  C    Isotropic =   127.6385   Anisotropy =    33.4705

      7  C    Isotropic =   112.2606   Anisotropy =    30.0589

      8  C    Isotropic =   114.6745   Anisotropy =    30.8867

      9  H    Isotropic =    29.8472   Anisotropy =    12.5948

     10  H    Isotropic =    29.4854   Anisotropy =     9.5012

     11  H    Isotropic =    27.6739   Anisotropy =     8.2784

     12  H    Isotropic =    28.5784   Anisotropy =    11.6132

     13  H    Isotropic =    28.6243   Anisotropy =     7.6498

     14  H    Isotropic =    29.9526   Anisotropy =    12.9289

     15  H    Isotropic =    30.2300   Anisotropy =     8.2416

     16  H    Isotropic =    28.8233   Anisotropy =     5.8868

     17  H    Isotropic =    27.5976   Anisotropy =     5.4205

     18  H    Isotropic =    27.8068   Anisotropy =     6.6307

     19  O    Isotropic =   291.0114   Anisotropy =    33.9884

     20  H    Isotropic =    30.9769   Anisotropy =    12.8038

     21  O    Isotropic =   296.8407   Anisotropy =    27.6629

     22  H    Isotropic =    30.3250   Anisotropy =    12.8048

     23  C    Isotropic =   126.9705   Anisotropy =    46.2922

     24  H    Isotropic =    27.7279   Anisotropy =     6.4744

     25  H    Isotropic =    27.7941   Anisotropy =     6.2145

     26  O    Isotropic =   312.6133   Anisotropy =    46.1070

     27  H    Isotropic =    30.2865   Anisotropy =    15.0848

 The electronic state is 1-A.
 Alpha  occ. eigenvalues --  -19.26320 -19.26313 -19.25721 -14.41658 -10.31004
 Alpha  occ. eigenvalues --  -10.30635 -10.29688 -10.28558 -10.28103 -10.27145
 Alpha  occ. eigenvalues --  -10.24818 -10.24793  -1.07490  -1.06046  -1.05716
 Alpha  occ. eigenvalues --   -0.96418  -0.82893  -0.79222  -0.75859  -0.72248
 Alpha  occ. eigenvalues --   -0.67293  -0.62825  -0.60770  -0.58611  -0.54599
 Alpha  occ. eigenvalues --   -0.53577  -0.52678  -0.50954  -0.48961  -0.46772
 Alpha  occ. eigenvalues --   -0.45999  -0.45007  -0.43900  -0.42423  -0.40745
 Alpha  occ. eigenvalues --   -0.40492  -0.38500  -0.37729  -0.36052  -0.35828
 Alpha  occ. eigenvalues --   -0.35305  -0.34955  -0.34587  -0.32337  -0.30276
 Alpha  occ. eigenvalues --   -0.28125  -0.23551
 Alpha virt. eigenvalues --    0.00443   0.01177   0.01851   0.02144   0.03280
 Alpha virt. eigenvalues --    0.04242   0.04749   0.04950   0.05348   0.06741
 Alpha virt. eigenvalues --    0.07545   0.07945   0.08351   0.08572   0.09590

 Mulliken atomic charges:
              1
     1  C   -0.501785
     2  C    0.041604
     3  N   -0.277256
     4  C   -0.257616
     5  C   -0.284869
     6  C    0.169192
     7  C   -0.251574
     8  C    0.000778
     9  H    0.179483
    10  H    0.188376
    11  H    0.173471
    12  H    0.169702
    13  H    0.167645
    14  H    0.177744
    15  H    0.162734
    16  H    0.169067
    17  H    0.190018
    18  H    0.182453
    19  O   -0.501416
    20  H    0.368642
    21  O   -0.504441
    22  H    0.383121
    23  C   -0.311467
    24  H    0.169637
    25  H    0.166445
    26  O   -0.545411
    27  H    0.375723
 Sum of Mulliken atomic charges =   0.00000

 Dipole moment (field-independent basis, Debye):
    X=              2.1360    Y=             -2.4616    Z=             -1.3091  Tot=              3.5122
 Quadrupole moment (field-independent basis, Debye-Ang):
   XX=            -83.2402   YY=            -78.9248   ZZ=            -70.3302
   XY=             -4.9911   XZ=             -0.5925   YZ=              0.7058

 Normal termination of Gaussian 09 at Fri May 17 12:24:34 2024.
