 Gaussian 09, Revision C.01,
 Gaussian 09:  AM64L-G09RevC.01 23-Sep-2011

 ------------------------------------------------
 # mpw1pw91/6-31+G** nmr scrf=(pcm,solvent=water)
 ------------------------------------------------

 99/9=1/99;
 -------
 comment
 -------
 Charge =  0 Multiplicity = 1

                         Standard orientation:
 ---------------------------------------------------------------------
 Center     Atomic      Atomic             Coordinates (Angstroms)
 Number     Number       Type             X           Y           Z
 ---------------------------------------------------------------------
      1          6           0        2.389990   -0.577588   -0.575306
      2          6           0        1.129483    0.274526   -0.830547
      3          7           0       -0.051545   -0.626724   -0.594147
      4          6           0        0.468066   -1.948516   -0.175225
      5          6           0        1.895472   -1.711803    0.336673
      6          6           0       -0.960355    0.037604    0.368659
      7          6           0       -0.615874    1.531372    0.238390
      8          6           0        0.915619    1.496792    0.080357
      9          1           0        2.752663   -0.988793   -1.524170
     10          1           0        3.200507    0.007924   -0.133286
     11          1           0        1.118657    0.633897   -1.866860
     12          1           0        0.488883   -2.628092   -1.038332
     13          1           0       -0.193629   -2.394868    0.572149
     14          1           0        2.519115   -2.610173    0.279510
     15          1           0        1.874047   -1.379087    1.379901
     16          1           0       -0.727865   -0.261498    1.403626
     17          1           0       -0.918709    2.098506    1.122859
     18          1           0        1.289654    2.421549   -0.376175
     19          8           0        1.545655    1.276863    1.346763
     20          1           0        1.349134    2.050634    1.901634
     21          8           0       -1.251942    2.182879   -0.867964
     22          1           0       -1.060334    1.671045   -1.672168
     23          6           0       -2.436110   -0.269587    0.122694
     24          1           0       -3.047999    0.340292    0.796319
     25          1           0       -2.710449   -0.017497   -0.908929
     26          8           0       -2.783446   -1.631288    0.409479
     27          1           0       -2.372748   -2.181195   -0.277444
 ---------------------------------------------------------------------

 SCF Done:  E(RmPW1PW91) =  -594.194595781     A.U. after   13 cycles

      1  C    Isotropic =   168.4766   Anisotropy =    23.2208

      2  C    Isotropic =   127.0990   Anisotropy =    63.1476

      3  N    Isotropic =   192.3774   Anisotropy =    81.4640

      4  C    Isotropic =   140.6437   Anisotropy =    57.3887

      5  C    Isotropic =   168.0620   Anisotropy =    25.1229

      6  C    Isotropic =   126.2240   Anisotropy =    32.6094

      7  C    Isotropic =   111.4540   Anisotropy =    30.4559

      8  C    Isotropic =   116.1611   Anisotropy =    29.8201

      9  H    Isotropic =    29.8792   Anisotropy =    12.4612

     10  H    Isotropic =    29.4773   Anisotropy =     9.5183

     11  H    Isotropic =    27.7271   Anisotropy =     8.3067

     12  H    Isotropic =    28.5747   Anisotropy =    11.5677

     13  H    Isotropic =    28.6216   Anisotropy =     7.5210

     14  H    Isotropic =    30.0992   Anisotropy =    12.8191

     15  H    Isotropic =    29.7734   Anisotropy =     8.0429

     16  H    Isotropic =    28.5224   Anisotropy =     5.6624

     17  H    Isotropic =    27.7485   Anisotropy =     5.2612

     18  H    Isotropic =    27.6524   Anisotropy =     6.5879

     19  O    Isotropic =   291.7201   Anisotropy =    77.5715

     20  H    Isotropic =    30.3638   Anisotropy =    20.4389

     21  O    Isotropic =   298.6799   Anisotropy =    31.9439

     22  H    Isotropic =    30.4346   Anisotropy =    13.0869

     23  C    Isotropic =   127.0290   Anisotropy =    46.9051

     24  H    Isotropic =    27.7617   Anisotropy =     6.4103

     25  H    Isotropic =    27.8259   Anisotropy =     6.2063

     26  O    Isotropic =   312.4710   Anisotropy =    47.1512

     27  H    Isotropic =    30.3265   Anisotropy =    15.0389

 The electronic state is 1-A.
 Alpha  occ. eigenvalues --  -19.26207 -19.25899 -19.25542 -14.41249 -10.30818
 Alpha  occ. eigenvalues --  -10.30414 -10.29395 -10.27994 -10.27900 -10.26783
 Alpha  occ. eigenvalues --  -10.24527 -10.24101  -1.07300  -1.05822  -1.05519
 Alpha  occ. eigenvalues --   -0.96027  -0.82443  -0.79118  -0.75435  -0.71883
 Alpha  occ. eigenvalues --   -0.66658  -0.62723  -0.60023  -0.57367  -0.55006
 Alpha  occ. eigenvalues --   -0.53800  -0.52832  -0.50625  -0.48490  -0.46668
 Alpha  occ. eigenvalues --   -0.45563  -0.43874  -0.43287  -0.42574  -0.41282
 Alpha  occ. eigenvalues --   -0.38948  -0.38434  -0.37879  -0.36995  -0.35491
 Alpha  occ. eigenvalues --   -0.34697  -0.34679  -0.32764  -0.31838  -0.30362
 Alpha  occ. eigenvalues --   -0.27957  -0.23243
 Alpha virt. eigenvalues --    0.00458   0.01447   0.01881   0.02140   0.03146
 Alpha virt. eigenvalues --    0.04243   0.04753   0.04962   0.05457   0.06756
 Alpha virt. eigenvalues --    0.07608   0.08106   0.08315   0.08721   0.09395

 Mulliken atomic charges:
              1
     1  C   -0.473673
     2  C    0.027990
     3  N   -0.235957
     4  C   -0.266877
     5  C   -0.292183
     6  C    0.115365
     7  C   -0.252728
     8  C    0.038427
     9  H    0.175254
    10  H    0.181189
    11  H    0.169481
    12  H    0.164847
    13  H    0.163858
    14  H    0.168435
    15  H    0.182347
    16  H    0.179640
    17  H    0.178079
    18  H    0.173972
    19  O   -0.564647
    20  H    0.388551
    21  O   -0.508690
    22  H    0.382729
    23  C   -0.253635
    24  H    0.166826
    25  H    0.162607
    26  O   -0.546514
    27  H    0.375308
 Sum of Mulliken atomic charges =   0.00000

 Dipole moment (field-independent basis, Debye):
    X=              2.6444    Y=              0.7471    Z=             -0.7873  Tot=              2.8584
 Quadrupole moment (field-independent basis, Debye-Ang):
   XX=            -83.2770   YY=            -71.7122   ZZ=            -69.6974
   XY=             -0.6382   XZ=              0.4609   YZ=              7.2075

 Normal termination of Gaussian 09 at Fri May 17 12:58:47 2024.
