 Gaussian 09, Revision C.01,
 Gaussian 09:  AM64L-G09RevC.01 23-Sep-2011

 ------------------------------------------------
 # mpw1pw91/6-31+G** nmr scrf=(pcm,solvent=water)
 ------------------------------------------------

 99/9=1/99;
 -------
 comment
 -------
 Charge =  0 Multiplicity = 1

                         Standard orientation:
 ---------------------------------------------------------------------
 Center     Atomic      Atomic             Coordinates (Angstroms)
 Number     Number       Type             X           Y           Z
 ---------------------------------------------------------------------
      1          6           0        2.240872   -0.791232   -0.073636
      2          6           0        1.030016   -0.234085   -0.880748
      3          7           0       -0.184289   -0.992002   -0.429301
      4          6           0        0.333789   -2.213977    0.221052
      5          6           0        1.629472   -1.793385    0.925882
      6          6           0       -0.989319   -0.110484    0.471896
      7          6           0       -0.163621    1.171205    0.659386
      8          6           0        0.667412    1.241556   -0.619517
      9          1           0        2.931232   -1.301647   -0.753365
     10          1           0        2.800996    0.008905    0.417313
     11          1           0        1.191181   -0.400805   -1.950696
     12          1           0        0.556197   -2.956249   -0.556715
     13          1           0       -0.424051   -2.643346    0.881773
     14          1           0        2.292099   -2.638094    1.141040
     15          1           0        1.394685   -1.301249    1.877742
     16          1           0       -1.154209   -0.617483    1.428151
     17          1           0        0.525290    1.048388    1.507557
     18          1           0        0.029138    1.608744   -1.434323
     19          8           0        1.762966    2.133327   -0.434032
     20          1           0        2.161670    2.292444   -1.305743
     21          8           0       -0.999811    2.305727    0.880475
     22          1           0       -0.411956    3.078592    0.928728
     23          6           0       -2.364274    0.130428   -0.172002
     24          1           0       -3.050160    0.598811    0.539177
     25          1           0       -2.272217    0.794573   -1.043802
     26          8           0       -2.936999   -1.120455   -0.554518
     27          1           0       -2.195209   -1.576512   -1.001009
 ---------------------------------------------------------------------

 SCF Done:  E(RmPW1PW91) =  -594.197256725     A.U. after   13 cycles

      1  C    Isotropic =   169.5275   Anisotropy =    25.2038

      2  C    Isotropic =   128.6311   Anisotropy =    60.8371

      3  N    Isotropic =   194.5772   Anisotropy =    63.3850

      4  C    Isotropic =   136.9527   Anisotropy =    59.7306

      5  C    Isotropic =   168.8610   Anisotropy =    19.6041

      6  C    Isotropic =   127.2097   Anisotropy =    44.3166

      7  C    Isotropic =   119.3655   Anisotropy =    47.8266

      8  C    Isotropic =   115.7249   Anisotropy =    36.5087

      9  H    Isotropic =    30.0685   Anisotropy =    12.3596

     10  H    Isotropic =    29.4983   Anisotropy =     7.7988

     11  H    Isotropic =    28.0637   Anisotropy =     8.6491

     12  H    Isotropic =    28.6827   Anisotropy =    11.5674

     13  H    Isotropic =    28.7440   Anisotropy =     9.0870

     14  H    Isotropic =    29.9765   Anisotropy =    12.5399

     15  H    Isotropic =    30.1058   Anisotropy =     8.8146

     16  H    Isotropic =    28.7547   Anisotropy =     5.9111

     17  H    Isotropic =    27.4431   Anisotropy =     4.9221

     18  H    Isotropic =    27.1433   Anisotropy =     3.2939

     19  O    Isotropic =   301.4881   Anisotropy =    60.2591

     20  H    Isotropic =    29.9045   Anisotropy =    20.8971

     21  O    Isotropic =   306.2922   Anisotropy =    37.5792

     22  H    Isotropic =    29.7006   Anisotropy =    18.8280

     23  C    Isotropic =   132.4730   Anisotropy =    46.3929

     24  H    Isotropic =    27.9885   Anisotropy =     6.1008

     25  H    Isotropic =    28.1889   Anisotropy =     6.4089

     26  O    Isotropic =   319.1720   Anisotropy =    38.1112

     27  H    Isotropic =    28.5733   Anisotropy =    16.4591

 The electronic state is 1-A.
 Alpha  occ. eigenvalues --  -19.26366 -19.26062 -19.24669 -14.42243 -10.30750
 Alpha  occ. eigenvalues --  -10.30576 -10.28965 -10.28387 -10.28025 -10.27110
 Alpha  occ. eigenvalues --  -10.24466 -10.24394  -1.07580  -1.05755  -1.05100
 Alpha  occ. eigenvalues --   -0.96912  -0.82428  -0.79227  -0.75475  -0.71524
 Alpha  occ. eigenvalues --   -0.66838  -0.61992  -0.59968  -0.58696  -0.55872
 Alpha  occ. eigenvalues --   -0.52774  -0.51687  -0.49851  -0.49321  -0.47787
 Alpha  occ. eigenvalues --   -0.45732  -0.44830  -0.44702  -0.41779  -0.40380
 Alpha  occ. eigenvalues --   -0.39462  -0.39113  -0.37631  -0.36584  -0.35510
 Alpha  occ. eigenvalues --   -0.34987  -0.33825  -0.33586  -0.30770  -0.29766
 Alpha  occ. eigenvalues --   -0.28664  -0.24395
 Alpha virt. eigenvalues --    0.00546   0.01143   0.01362   0.02326   0.04018
 Alpha virt. eigenvalues --    0.04306   0.04382   0.04763   0.05134   0.07257
 Alpha virt. eigenvalues --    0.07878   0.08224   0.08821   0.09036   0.09825

 Mulliken atomic charges:
              1
     1  C   -0.419680
     2  C   -0.009951
     3  N   -0.204415
     4  C   -0.196122
     5  C   -0.258564
     6  C   -0.158026
     7  C   -0.096264
     8  C   -0.177872
     9  H    0.175494
    10  H    0.189619
    11  H    0.175939
    12  H    0.171242
    13  H    0.172418
    14  H    0.173538
    15  H    0.172708
    16  H    0.179537
    17  H    0.178490
    18  H    0.180350
    19  O   -0.547546
    20  H    0.390196
    21  O   -0.531469
    22  H    0.383635
    23  C   -0.117303
    24  H    0.170123
    25  H    0.151278
    26  O   -0.527970
    27  H    0.380613
 Sum of Mulliken atomic charges =   0.00000

 Dipole moment (field-independent basis, Debye):
    X=              5.3828    Y=              0.2782    Z=             -1.0574  Tot=              5.4927
 Quadrupole moment (field-independent basis, Debye-Ang):
   XX=            -86.7310   YY=            -69.9719   ZZ=            -68.6636
   XY=             -3.2144   XZ=             -5.0445   YZ=             -4.7545

 Normal termination of Gaussian 09 at Fri May 17 12:55:13 2024.
