 Gaussian 09, Revision C.01,
 Gaussian 09:  AM64L-G09RevC.01 23-Sep-2011

 ------------------------------------------------
 # mpw1pw91/6-31+G** nmr scrf=(pcm,solvent=water)
 ------------------------------------------------

 99/9=1/99;
 -------
 comment
 -------
 Charge =  0 Multiplicity = 1

                         Standard orientation:
 ---------------------------------------------------------------------
 Center     Atomic      Atomic             Coordinates (Angstroms)
 Number     Number       Type             X           Y           Z
 ---------------------------------------------------------------------
      1          6           0       -2.469699    0.288519   -0.435022
      2          6           0       -1.102053   -0.358741   -0.713737
      3          7           0       -0.067022    0.676921   -0.365129
      4          6           0       -0.759040    1.780155    0.325871
      5          6           0       -2.148753    1.789454   -0.310383
      6          6           0        1.022944    0.022001    0.392245
      7          6           0        0.820507   -1.494240    0.170324
      8          6           0       -0.716142   -1.620507    0.088529
      9          1           0       -3.198212    0.069155   -1.220804
     10          1           0       -2.873240   -0.086142    0.511391
     11          1           0       -1.008696   -0.610254   -1.778971
     12          1           0       -0.224249    2.727944    0.198121
     13          1           0       -0.836708    1.591165    1.412106
     14          1           0       -2.104443    2.257476   -1.301016
     15          1           0       -2.881389    2.336839    0.290983
     16          1           0        0.898381    0.215578    1.472099
     17          1           0        1.220541   -2.078624    1.001968
     18          1           0       -1.008457   -2.542807   -0.419824
     19          8           0       -1.298788   -1.702737    1.392944
     20          1           0       -1.113612   -0.876759    1.871738
     21          8           0        1.469582   -2.011425   -0.997267
     22          1           0        1.163154   -1.511173   -1.772188
     23          6           0        2.411865    0.520228    0.003322
     24          1           0        3.171193   -0.041612    0.557814
     25          1           0        2.585675    0.362296   -1.068146
     26          8           0        2.614524    1.897756    0.343556
     27          1           0        2.038894    2.418520   -0.240125
 ---------------------------------------------------------------------

 SCF Done:  E(RmPW1PW91) =  -594.193537241     A.U. after   13 cycles

      1  C    Isotropic =   171.9283   Anisotropy =    21.1936

      2  C    Isotropic =   127.1301   Anisotropy =    60.3412

      3  N    Isotropic =   188.3222   Anisotropy =    92.6350

      4  C    Isotropic =   134.8419   Anisotropy =    54.6765

      5  C    Isotropic =   163.3980   Anisotropy =    26.7797

      6  C    Isotropic =   125.4455   Anisotropy =    37.4831

      7  C    Isotropic =   109.6610   Anisotropy =    30.2079

      8  C    Isotropic =   115.7293   Anisotropy =    34.2487

      9  H    Isotropic =    29.8190   Anisotropy =    11.7916

     10  H    Isotropic =    29.6220   Anisotropy =     7.5179

     11  H    Isotropic =    27.6208   Anisotropy =     7.7629

     12  H    Isotropic =    28.3630   Anisotropy =     8.5169

     13  H    Isotropic =    29.2034   Anisotropy =     7.9337

     14  H    Isotropic =    29.3513   Anisotropy =    10.5238

     15  H    Isotropic =    29.4663   Anisotropy =    11.6696

     16  H    Isotropic =    28.7820   Anisotropy =     5.2982

     17  H    Isotropic =    27.2557   Anisotropy =     4.9931

     18  H    Isotropic =    27.8703   Anisotropy =     6.6704

     19  O    Isotropic =   284.8295   Anisotropy =    36.8404

     20  H    Isotropic =    31.1245   Anisotropy =    12.9240

     21  O    Isotropic =   295.3831   Anisotropy =    30.8699

     22  H    Isotropic =    30.4411   Anisotropy =    13.1851

     23  C    Isotropic =   127.8617   Anisotropy =    48.0290

     24  H    Isotropic =    27.7734   Anisotropy =     6.4118

     25  H    Isotropic =    27.7957   Anisotropy =     6.0921

     26  O    Isotropic =   311.5328   Anisotropy =    46.4139

     27  H    Isotropic =    30.3259   Anisotropy =    15.2469

 The electronic state is 1-A.
 Alpha  occ. eigenvalues --  -19.26402 -19.26396 -19.25641 -14.41716 -10.31020
 Alpha  occ. eigenvalues --  -10.30673 -10.29641 -10.28430 -10.28265 -10.27423
 Alpha  occ. eigenvalues --  -10.24853 -10.24830  -1.07531  -1.06109  -1.05677
 Alpha  occ. eigenvalues --   -0.96630  -0.83141  -0.79304  -0.75670  -0.72393
 Alpha  occ. eigenvalues --   -0.67198  -0.62234  -0.61138  -0.58979  -0.54936
 Alpha  occ. eigenvalues --   -0.53695  -0.52454  -0.50961  -0.48520  -0.46945
 Alpha  occ. eigenvalues --   -0.46481  -0.45275  -0.43543  -0.42747  -0.40436
 Alpha  occ. eigenvalues --   -0.39980  -0.38605  -0.38134  -0.36283  -0.35990
 Alpha  occ. eigenvalues --   -0.35538  -0.34873  -0.33992  -0.32521  -0.30409
 Alpha  occ. eigenvalues --   -0.28209  -0.23577
 Alpha virt. eigenvalues --    0.00477   0.01201   0.01986   0.02077   0.03465
 Alpha virt. eigenvalues --    0.04205   0.04783   0.04850   0.05388   0.06698
 Alpha virt. eigenvalues --    0.07616   0.08088   0.08536   0.08798   0.09410

 Mulliken atomic charges:
              1
     1  C   -0.520593
     2  C    0.076855
     3  N   -0.320089
     4  C   -0.255099
     5  C   -0.339997
     6  C    0.231138
     7  C   -0.239123
     8  C   -0.044352
     9  H    0.179218
    10  H    0.184837
    11  H    0.171211
    12  H    0.161980
    13  H    0.154022
    14  H    0.181023
    15  H    0.178595
    16  H    0.167620
    17  H    0.189763
    18  H    0.183302
    19  O   -0.513113
    20  H    0.383897
    21  O   -0.505037
    22  H    0.379495
    23  C   -0.247282
    24  H    0.168719
    25  H    0.161760
    26  O   -0.543693
    27  H    0.374946
 Sum of Mulliken atomic charges =   0.00000

 Dipole moment (field-independent basis, Debye):
    X=             -2.8930    Y=              1.9681    Z=             -1.2858  Tot=              3.7278
 Quadrupole moment (field-independent basis, Debye-Ang):
   XX=            -81.8630   YY=            -81.2699   ZZ=            -70.0283
   XY=             -5.9976   XZ=              0.6746   YZ=              0.2559

 Normal termination of Gaussian 09 at Fri May 17 12:48:20 2024.
