 Gaussian 09, Revision C.01,
 Gaussian 09:  AM64L-G09RevC.01 23-Sep-2011

 ------------------------------------------------
 # mpw1pw91/6-31+G** nmr scrf=(pcm,solvent=water)
 ------------------------------------------------

 99/9=1/99;
 -------
 comment
 -------
 Charge =  0 Multiplicity = 1

                         Standard orientation:
 ---------------------------------------------------------------------
 Center     Atomic      Atomic             Coordinates (Angstroms)
 Number     Number       Type             X           Y           Z
 ---------------------------------------------------------------------
      1          6           0        2.374742   -0.176988   -0.817470
      2          6           0        0.908648    0.290286   -0.914681
      3          7           0        0.076015   -0.824146   -0.338473
      4          6           0        1.000330   -1.874456    0.153695
      5          6           0        2.365307   -1.196906    0.332119
      6          6           0       -0.803921   -0.241706    0.704799
      7          6           0       -0.900464    1.249660    0.340068
      8          6           0        0.527175    1.561527   -0.120415
      9          1           0        2.664018   -0.668974   -1.753116
     10          1           0        3.073963    0.651352   -0.660197
     11          1           0        0.625321    0.458018   -1.959589
     12          1           0        1.074612   -2.677378   -0.591518
     13          1           0        0.610319   -2.321569    1.073670
     14          1           0        3.197264   -1.907177    0.285052
     15          1           0        2.411021   -0.680334    1.296569
     16          1           0       -0.344697   -0.302710    1.703781
     17          1           0       -1.180377    1.852208    1.213841
     18          1           0        0.557086    2.456030   -0.754861
     19          8           0        1.305479    1.771394    1.063244
     20          1           0        2.218789    1.953058    0.787140
     21          8           0       -1.792550    1.524744   -0.745694
     22          1           0       -2.389688    0.751072   -0.829392
     23          6           0       -2.140953   -0.979923    0.770696
     24          1           0       -1.987802   -2.001697    1.143033
     25          1           0       -2.831121   -0.470486    1.449657
     26          8           0       -2.780309   -1.019725   -0.517829
     27          1           0       -2.076959   -1.322667   -1.125391
 ---------------------------------------------------------------------

 SCF Done:  E(RmPW1PW91) =  -594.201318268     A.U. after   12 cycles

      1  C    Isotropic =   167.7510   Anisotropy =    24.6739

      2  C    Isotropic =   125.9215   Anisotropy =    59.1109

      3  N    Isotropic =   198.6615   Anisotropy =    79.9472

      4  C    Isotropic =   142.2888   Anisotropy =    55.5565

      5  C    Isotropic =   168.4057   Anisotropy =    23.0353

      6  C    Isotropic =   126.8055   Anisotropy =    47.7158

      7  C    Isotropic =   112.0865   Anisotropy =    29.9633

      8  C    Isotropic =   115.0321   Anisotropy =    29.0468

      9  H    Isotropic =    29.6498   Anisotropy =    12.2362

     10  H    Isotropic =    29.9109   Anisotropy =     9.6949

     11  H    Isotropic =    27.6856   Anisotropy =     7.7655

     12  H    Isotropic =    28.7003   Anisotropy =    11.8631

     13  H    Isotropic =    28.8233   Anisotropy =     8.7994

     14  H    Isotropic =    30.0526   Anisotropy =    12.8445

     15  H    Isotropic =    29.8027   Anisotropy =     8.0063

     16  H    Isotropic =    28.7338   Anisotropy =     5.1879

     17  H    Isotropic =    27.1879   Anisotropy =     5.7031

     18  H    Isotropic =    27.6716   Anisotropy =     6.7578

     19  O    Isotropic =   299.4961   Anisotropy =    48.3825

     20  H    Isotropic =    29.9553   Anisotropy =    18.0931

     21  O    Isotropic =   301.3910   Anisotropy =    55.1894

     22  H    Isotropic =    26.4658   Anisotropy =    24.7612

     23  C    Isotropic =   131.8192   Anisotropy =    54.5812

     24  H    Isotropic =    27.5965   Anisotropy =     7.9991

     25  H    Isotropic =    27.5585   Anisotropy =     6.9688

     26  O    Isotropic =   316.3517   Anisotropy =    30.2728

     27  H    Isotropic =    28.3203   Anisotropy =    14.9050

 The electronic state is 1-A.
 Alpha  occ. eigenvalues --  -19.26639 -19.25834 -19.24471 -14.41687 -10.30353
 Alpha  occ. eigenvalues --  -10.30224 -10.30151 -10.28460 -10.27779 -10.26998
 Alpha  occ. eigenvalues --  -10.25027 -10.24387  -1.07514  -1.06375  -1.04430
 Alpha  occ. eigenvalues --   -0.96170  -0.82662  -0.79085  -0.75682  -0.72214
 Alpha  occ. eigenvalues --   -0.66976  -0.61488  -0.59890  -0.58154  -0.56314
 Alpha  occ. eigenvalues --   -0.53069  -0.51737  -0.50068  -0.48304  -0.47778
 Alpha  occ. eigenvalues --   -0.46596  -0.45043  -0.43996  -0.42403  -0.40638
 Alpha  occ. eigenvalues --   -0.39647  -0.38913  -0.37081  -0.36757  -0.35720
 Alpha  occ. eigenvalues --   -0.35577  -0.34414  -0.33753  -0.30590  -0.29805
 Alpha  occ. eigenvalues --   -0.28846  -0.23743
 Alpha virt. eigenvalues --    0.00459   0.01463   0.01850   0.02612   0.04034
 Alpha virt. eigenvalues --    0.04117   0.04501   0.05260   0.05554   0.07059
 Alpha virt. eigenvalues --    0.07422   0.08220   0.08265   0.08642   0.09760

 Mulliken atomic charges:
              1
     1  C   -0.469225
     2  C    0.035634
     3  N   -0.277713
     4  C   -0.239462
     5  C   -0.306715
     6  C    0.320216
     7  C   -0.336858
     8  C    0.129041
     9  H    0.183712
    10  H    0.159933
    11  H    0.169906
    12  H    0.166009
    13  H    0.164056
    14  H    0.171879
    15  H    0.181334
    16  H    0.182507
    17  H    0.167205
    18  H    0.168050
    19  O   -0.558662
    20  H    0.378153
    21  O   -0.560080
    22  H    0.407898
    23  C   -0.399346
    24  H    0.165406
    25  H    0.178176
    26  O   -0.588693
    27  H    0.407640
 Sum of Mulliken atomic charges =   0.00000

 Dipole moment (field-independent basis, Debye):
    X=              4.3551    Y=             -2.2773    Z=              0.9144  Tot=              4.9989
 Quadrupole moment (field-independent basis, Debye-Ang):
   XX=            -74.5536   YY=            -74.9271   ZZ=            -73.4175
   XY=              3.8611   XZ=             -6.9550   YZ=             -1.3709

 Normal termination of Gaussian 09 at Fri May 17 12:41:06 2024.
