 Gaussian 09, Revision C.01,
 Gaussian 09:  AM64L-G09RevC.01 23-Sep-2011

 ------------------------------------------------
 # mpw1pw91/6-31+G** nmr scrf=(pcm,solvent=water)
 ------------------------------------------------

 99/9=1/99;
 -------
 comment
 -------
 Charge =  0 Multiplicity = 1

                         Standard orientation:
 ---------------------------------------------------------------------
 Center     Atomic      Atomic             Coordinates (Angstroms)
 Number     Number       Type             X           Y           Z
 ---------------------------------------------------------------------
      1          6           0       -2.221817    0.765615    0.090758
      2          6           0       -0.898414    0.345071    0.744273
      3          7           0       -0.549513   -0.983556    0.133424
      4          6           0       -1.740758   -1.475116   -0.605412
      5          6           0       -2.903140   -0.589984   -0.137959
      6          6           0        0.694105   -0.850368   -0.666401
      7          6           0        0.931197    0.668476   -0.785088
      8          6           0        0.323909    1.246210    0.490416
      9          1           0       -2.804427    1.446137    0.719471
     10          1           0       -2.038540    1.263644   -0.868825
     11          1           0       -1.058972    0.220546    1.822810
     12          1           0       -1.919223   -2.538950   -0.408018
     13          1           0       -1.593752   -1.364411   -1.689571
     14          1           0       -3.318225   -0.967993    0.804462
     15          1           0       -3.714144   -0.552815   -0.871940
     16          1           0        0.546408   -1.282812   -1.662776
     17          1           0        0.345364    1.048098   -1.635299
     18          1           0        1.049246    1.135032    1.304821
     19          8           0        0.030128    2.630858    0.293669
     20          1           0       -0.211927    3.002763    1.158031
     21          8           0        2.308377    0.983709   -0.976135
     22          1           0        2.366926    1.953010   -1.025497
     23          6           0        1.833977   -1.636674   -0.009604
     24          1           0        1.633110   -2.710183   -0.142750
     25          1           0        2.789973   -1.411901   -0.489659
     26          8           0        1.983140   -1.333756    1.379445
     27          1           0        1.087258   -1.441130    1.749039
 ---------------------------------------------------------------------

 SCF Done:  E(RmPW1PW91) =  -594.195971940     A.U. after   13 cycles

      1  C    Isotropic =   165.3718   Anisotropy =    14.9300

      2  C    Isotropic =   127.2544   Anisotropy =    50.7212

      3  N    Isotropic =   205.8763   Anisotropy =    65.3362

      4  C    Isotropic =   136.7740   Anisotropy =    63.2959

      5  C    Isotropic =   166.9634   Anisotropy =    22.4477

      6  C    Isotropic =   124.9435   Anisotropy =    49.5612

      7  C    Isotropic =   120.9515   Anisotropy =    49.9952

      8  C    Isotropic =   116.2139   Anisotropy =    36.4046

      9  H    Isotropic =    29.9426   Anisotropy =    10.6154

     10  H    Isotropic =    30.0071   Anisotropy =     6.9019

     11  H    Isotropic =    28.0708   Anisotropy =     7.6643

     12  H    Isotropic =    28.1359   Anisotropy =     9.9677

     13  H    Isotropic =    28.9240   Anisotropy =     8.7571

     14  H    Isotropic =    29.7851   Anisotropy =    11.1524

     15  H    Isotropic =    29.5882   Anisotropy =    11.6642

     16  H    Isotropic =    28.7992   Anisotropy =     5.3174

     17  H    Isotropic =    27.2008   Anisotropy =     3.7671

     18  H    Isotropic =    27.0471   Anisotropy =     5.2936

     19  O    Isotropic =   302.0593   Anisotropy =    59.2029

     20  H    Isotropic =    29.9959   Anisotropy =    20.2727

     21  O    Isotropic =   304.4840   Anisotropy =    39.0266

     22  H    Isotropic =    29.5800   Anisotropy =    18.7574

     23  C    Isotropic =   133.4400   Anisotropy =    52.0791

     24  H    Isotropic =    28.0797   Anisotropy =     9.3932

     25  H    Isotropic =    27.7161   Anisotropy =     6.1924

     26  O    Isotropic =   315.3545   Anisotropy =    34.0283

     27  H    Isotropic =    29.5045   Anisotropy =    14.2217

 The electronic state is 1-A.
 Alpha  occ. eigenvalues --  -19.26037 -19.25837 -19.24900 -14.41694 -10.30380
 Alpha  occ. eigenvalues --  -10.30096 -10.28878 -10.28226 -10.27784 -10.27075
 Alpha  occ. eigenvalues --  -10.24637 -10.24492  -1.07247  -1.05515  -1.05063
 Alpha  occ. eigenvalues --   -0.96442  -0.82722  -0.79200  -0.75131  -0.71737
 Alpha  occ. eigenvalues --   -0.66626  -0.61295  -0.60336  -0.58630  -0.54779
 Alpha  occ. eigenvalues --   -0.53752  -0.50679  -0.49741  -0.49353  -0.48234
 Alpha  occ. eigenvalues --   -0.45833  -0.44580  -0.43745  -0.41795  -0.40769
 Alpha  occ. eigenvalues --   -0.39707  -0.37899  -0.37201  -0.36598  -0.35767
 Alpha  occ. eigenvalues --   -0.35120  -0.34374  -0.33364  -0.30784  -0.29421
 Alpha  occ. eigenvalues --   -0.28592  -0.23339
 Alpha virt. eigenvalues --    0.00457   0.01296   0.01695   0.02211   0.03760
 Alpha virt. eigenvalues --    0.04190   0.04427   0.04803   0.05307   0.07087
 Alpha virt. eigenvalues --    0.07873   0.08345   0.08661   0.08945   0.09870

 Mulliken atomic charges:
              1
     1  C   -0.364118
     2  C   -0.063687
     3  N   -0.171467
     4  C   -0.255238
     5  C   -0.350285
     6  C    0.080519
     7  C   -0.131763
     8  C   -0.154513
     9  H    0.176268
    10  H    0.178979
    11  H    0.173128
    12  H    0.162451
    13  H    0.157469
    14  H    0.177865
    15  H    0.178421
    16  H    0.165088
    17  H    0.173891
    18  H    0.190726
    19  O   -0.540291
    20  H    0.390241
    21  O   -0.541226
    22  H    0.384965
    23  C   -0.172457
    24  H    0.152010
    25  H    0.169222
    26  O   -0.550375
    27  H    0.384175
 Sum of Mulliken atomic charges =   0.00000

 Dipole moment (field-independent basis, Debye):
    X=             -4.5601    Y=              1.0202    Z=             -0.2743  Tot=              4.6809
 Quadrupole moment (field-independent basis, Debye-Ang):
   XX=            -80.3574   YY=            -70.5261   ZZ=            -70.1098
   XY=              3.5354   XZ=             -4.3478   YZ=              7.3583

 Normal termination of Gaussian 09 at Fri May 17 12:28:38 2024.
