 Gaussian 09, Revision C.01,
 Gaussian 09:  AM64L-G09RevC.01 23-Sep-2011

 ------------------------------------------------
 # mpw1pw91/6-31+G** nmr scrf=(pcm,solvent=water)
 ------------------------------------------------

 99/9=1/99;
 -------
 comment
 -------
 Charge =  0 Multiplicity = 1

                         Standard orientation:
 ---------------------------------------------------------------------
 Center     Atomic      Atomic             Coordinates (Angstroms)
 Number     Number       Type             X           Y           Z
 ---------------------------------------------------------------------
      1          6           0       -2.042962    0.839083    0.472054
      2          6           0       -1.374101    0.206573   -0.789352
      3          7           0       -0.086606    0.931071   -1.027657
      4          6           0       -0.178927    2.171897   -0.230172
      5          6           0       -1.010137    1.844230    1.015143
      6          6           0        1.043222   -0.015220   -0.749378
      7          6           0        0.436651   -1.270477   -0.108465
      8          6           0       -0.980348   -1.281174   -0.700045
      9          1           0       -2.958934    1.358063    0.169705
     10          1           0       -2.326938    0.087293    1.211781
     11          1           0       -2.042681    0.343081   -1.645974
     12          1           0       -0.708079    2.925638   -0.829639
     13          1           0        0.807963    2.584413   -0.014794
     14          1           0       -1.475825    2.732246    1.455782
     15          1           0       -0.381413    1.376333    1.779381
     16          1           0        1.449097   -0.342918   -1.717201
     17          1           0        1.002394   -2.170544   -0.382780
     18          1           0       -0.939229   -1.704973   -1.710235
     19          8           0       -1.902667   -2.020843    0.101143
     20          1           0       -1.746254   -2.964133   -0.075895
     21          8           0        0.373100   -1.163412    1.316441
     22          1           0       -0.430746   -1.658619    1.566840
     23          6           0        2.231806    0.563728    0.025520
     24          1           0        2.660726    1.408701   -0.520754
     25          1           0        1.931230    0.918412    1.017173
     26          8           0        3.282798   -0.403246    0.143061
     27          1           0        2.987870   -1.062323    0.793219
 ---------------------------------------------------------------------

 SCF Done:  E(RmPW1PW91) =  -594.188342983     A.U. after   14 cycles

      1  C    Isotropic =   169.3310   Anisotropy =    25.6960

      2  C    Isotropic =   126.7276   Anisotropy =    65.6018

      3  N    Isotropic =   195.3924   Anisotropy =    75.4416

      4  C    Isotropic =   144.7195   Anisotropy =    48.7364

      5  C    Isotropic =   168.5889   Anisotropy =    19.9003

      6  C    Isotropic =   128.7973   Anisotropy =    50.7496

      7  C    Isotropic =   122.3082   Anisotropy =    26.9676

      8  C    Isotropic =   120.8030   Anisotropy =    50.6014

      9  H    Isotropic =    30.1844   Anisotropy =    12.6286

     10  H    Isotropic =    29.4096   Anisotropy =     6.8637

     11  H    Isotropic =    27.8715   Anisotropy =     9.5852

     12  H    Isotropic =    28.9529   Anisotropy =    12.5486

     13  H    Isotropic =    28.7332   Anisotropy =     7.7656

     14  H    Isotropic =    30.1591   Anisotropy =    12.3723

     15  H    Isotropic =    29.8481   Anisotropy =     7.3844

     16  H    Isotropic =    28.1692   Anisotropy =     8.2231

     17  H    Isotropic =    27.7725   Anisotropy =     7.8812

     18  H    Isotropic =    27.0299   Anisotropy =     6.6391

     19  O    Isotropic =   310.5827   Anisotropy =   103.2287

     20  H    Isotropic =    29.9738   Anisotropy =    22.6120

     21  O    Isotropic =   315.9485   Anisotropy =    35.3783

     22  H    Isotropic =    28.6058   Anisotropy =    17.3187

     23  C    Isotropic =   135.2828   Anisotropy =    68.3738

     24  H    Isotropic =    27.7870   Anisotropy =     5.4577

     25  H    Isotropic =    27.4640   Anisotropy =     5.5347

     26  O    Isotropic =   315.3530   Anisotropy =    53.3045

     27  H    Isotropic =    30.3381   Anisotropy =    15.5267

 The electronic state is 1-A.
 Alpha  occ. eigenvalues --  -19.27119 -19.25777 -19.25322 -14.41217 -10.30860
 Alpha  occ. eigenvalues --  -10.30067 -10.29841 -10.28120 -10.27749 -10.26660
 Alpha  occ. eigenvalues --  -10.24029 -10.23744  -1.08317  -1.05967  -1.04879
 Alpha  occ. eigenvalues --   -0.95951  -0.82088  -0.78993  -0.75430  -0.71226
 Alpha  occ. eigenvalues --   -0.67469  -0.61770  -0.59166  -0.57614  -0.56138
 Alpha  occ. eigenvalues --   -0.53411  -0.52176  -0.50550  -0.48971  -0.47662
 Alpha  occ. eigenvalues --   -0.46486  -0.44233  -0.43298  -0.41565  -0.40925
 Alpha  occ. eigenvalues --   -0.39489  -0.38120  -0.37693  -0.36009  -0.35176
 Alpha  occ. eigenvalues --   -0.34739  -0.33921  -0.33282  -0.31487  -0.29667
 Alpha  occ. eigenvalues --   -0.29130  -0.22848
 Alpha virt. eigenvalues --   -0.00287   0.01644   0.01734   0.02102   0.03649
 Alpha virt. eigenvalues --    0.04116   0.04719   0.04757   0.05301   0.07429
 Alpha virt. eigenvalues --    0.07942   0.08546   0.08763   0.08947   0.09678

 Mulliken atomic charges:
              1
     1  C   -0.461445
     2  C    0.060818
     3  N   -0.095110
     4  C   -0.242401
     5  C   -0.253675
     6  C   -0.206329
     7  C    0.154962
     8  C   -0.229850
     9  H    0.169880
    10  H    0.181006
    11  H    0.167668
    12  H    0.163191
    13  H    0.159660
    14  H    0.165305
    15  H    0.178073
    16  H    0.174859
    17  H    0.167753
    18  H    0.180448
    19  O   -0.610025
    20  H    0.405648
    21  O   -0.590677
    22  H    0.393296
    23  C   -0.216323
    24  H    0.177738
    25  H    0.174100
    26  O   -0.552953
    27  H    0.384386
 Sum of Mulliken atomic charges =   0.00000

 Dipole moment (field-independent basis, Debye):
    X=             -2.4460    Y=             -2.2469    Z=             -0.0098  Tot=              3.3214
 Quadrupole moment (field-independent basis, Debye-Ang):
   XX=            -86.1501   YY=            -59.6878   ZZ=            -75.4698
   XY=              1.8912   XZ=              2.1046   YZ=              2.9490

 Normal termination of Gaussian 09 at Fri May 17 13:18:43 2024.
