 Gaussian 09, Revision C.01,
 Gaussian 09:  AM64L-G09RevC.01 23-Sep-2011

 ------------------------------------------------
 # mpw1pw91/6-31+G** nmr scrf=(pcm,solvent=water)
 ------------------------------------------------

 99/9=1/99;
 -------
 comment
 -------
 Charge =  0 Multiplicity = 1

                         Standard orientation:
 ---------------------------------------------------------------------
 Center     Atomic      Atomic             Coordinates (Angstroms)
 Number     Number       Type             X           Y           Z
 ---------------------------------------------------------------------
      1          6           0       -2.030386    1.345546   -0.167859
      2          6           0       -1.068245    0.435748   -0.959155
      3          7           0        0.309511    0.817862   -0.522137
      4          6           0        0.159256    1.490536    0.789207
      5          6           0       -1.106554    2.321159    0.587521
      6          6           0        1.096608   -0.433131   -0.556361
      7          6           0        0.152414   -1.574309   -0.152557
      8          6           0       -1.217597   -1.119404   -0.738247
      9          1           0       -2.741729    1.857851   -0.822469
     10          1           0       -2.612676    0.747433    0.539249
     11          1           0       -1.156156    0.617058   -2.036179
     12          1           0        1.042771    2.099491    1.011861
     13          1           0        0.015183    0.790462    1.625424
     14          1           0       -0.884768    3.200101   -0.028770
     15          1           0       -1.534100    2.670023    1.532767
     16          1           0        1.344685   -0.617986   -1.612084
     17          1           0        0.476807   -2.533056   -0.568224
     18          1           0       -1.380629   -1.600081   -1.706646
     19          8           0       -2.299062   -1.535806    0.086414
     20          1           0       -1.977321   -1.428990    1.001914
     21          8           0        0.070378   -1.684851    1.280850
     22          1           0       -0.212125   -2.591846    1.484394
     23          6           0        2.417479   -0.381934    0.204201
     24          1           0        2.255258   -0.165877    1.266416
     25          1           0        2.899863   -1.361980    0.136319
     26          8           0        3.343917    0.551984   -0.362078
     27          1           0        2.958646    1.436478   -0.250984
 ---------------------------------------------------------------------

 SCF Done:  E(RmPW1PW91) =  -594.190706428     A.U. after   13 cycles

      1  C    Isotropic =   171.0749   Anisotropy =    24.5341

      2  C    Isotropic =   127.5706   Anisotropy =    54.0515

      3  N    Isotropic =   187.4120   Anisotropy =    77.6023

      4  C    Isotropic =   145.8448   Anisotropy =    41.8885

      5  C    Isotropic =   166.6674   Anisotropy =    24.2152

      6  C    Isotropic =   130.0371   Anisotropy =    23.4039

      7  C    Isotropic =   117.4651   Anisotropy =    28.3805

      8  C    Isotropic =   120.6119   Anisotropy =    43.3147

      9  H    Isotropic =    29.7991   Anisotropy =    12.1158

     10  H    Isotropic =    29.4913   Anisotropy =     7.0723

     11  H    Isotropic =    28.0344   Anisotropy =     9.2971

     12  H    Isotropic =    28.8144   Anisotropy =     9.2130

     13  H    Isotropic =    28.6224   Anisotropy =     6.1772

     14  H    Isotropic =    29.7464   Anisotropy =    11.2593

     15  H    Isotropic =    29.7107   Anisotropy =    11.5965

     16  H    Isotropic =    28.4766   Anisotropy =     8.7658

     17  H    Isotropic =    27.4899   Anisotropy =     8.0325

     18  H    Isotropic =    27.5383   Anisotropy =     7.6933

     19  O    Isotropic =   303.5399   Anisotropy =    52.1760

     20  H    Isotropic =    29.2594   Anisotropy =    14.2407

     21  O    Isotropic =   307.7050   Anisotropy =    61.8998

     22  H    Isotropic =    29.9794   Anisotropy =    22.5120

     23  C    Isotropic =   132.7182   Anisotropy =    60.0995

     24  H    Isotropic =    27.2456   Anisotropy =     4.3332

     25  H    Isotropic =    27.5970   Anisotropy =     6.1512

     26  O    Isotropic =   313.1051   Anisotropy =    35.9546

     27  H    Isotropic =    30.1672   Anisotropy =    15.2716

 The electronic state is 1-A.
 Alpha  occ. eigenvalues --  -19.26849 -19.25639 -19.25564 -14.41195 -10.30838
 Alpha  occ. eigenvalues --  -10.30147 -10.29833 -10.28159 -10.27443 -10.26719
 Alpha  occ. eigenvalues --  -10.24441 -10.24316  -1.08224  -1.05760  -1.04898
 Alpha  occ. eigenvalues --   -0.96405  -0.82863  -0.78172  -0.75479  -0.71831
 Alpha  occ. eigenvalues --   -0.66839  -0.61872  -0.59712  -0.57559  -0.55922
 Alpha  occ. eigenvalues --   -0.54207  -0.52014  -0.50638  -0.48604  -0.46869
 Alpha  occ. eigenvalues --   -0.45610  -0.45014  -0.44308  -0.42598  -0.39578
 Alpha  occ. eigenvalues --   -0.39198  -0.38240  -0.37027  -0.36537  -0.35325
 Alpha  occ. eigenvalues --   -0.34815  -0.34559  -0.33466  -0.31842  -0.30025
 Alpha  occ. eigenvalues --   -0.28931  -0.23109
 Alpha virt. eigenvalues --   -0.00171   0.01323   0.01884   0.02219   0.03831
 Alpha virt. eigenvalues --    0.04487   0.04674   0.05049   0.05461   0.07498
 Alpha virt. eigenvalues --    0.07763   0.08241   0.08605   0.09008   0.09783

 Mulliken atomic charges:
              1
     1  C   -0.461796
     2  C   -0.045320
     3  N   -0.217101
     4  C   -0.206409
     5  C   -0.401137
     6  C    0.149507
     7  C    0.009131
     8  C   -0.065308
     9  H    0.172382
    10  H    0.176955
    11  H    0.167813
    12  H    0.155111
    13  H    0.182710
    14  H    0.176140
    15  H    0.173424
    16  H    0.180215
    17  H    0.177116
    18  H    0.171779
    19  O   -0.553050
    20  H    0.384370
    21  O   -0.666419
    22  H    0.415657
    23  C   -0.254847
    24  H    0.170139
    25  H    0.171401
    26  O   -0.538205
    27  H    0.375745
 Sum of Mulliken atomic charges =   0.00000

 Dipole moment (field-independent basis, Debye):
    X=             -1.2058    Y=             -1.3509    Z=              1.3535  Tot=              2.2607
 Quadrupole moment (field-independent basis, Debye-Ang):
   XX=            -91.1511   YY=            -63.8611   ZZ=            -71.1712
   XY=             -4.9397   XZ=              1.5259   YZ=              0.7708

 Normal termination of Gaussian 09 at Fri May 17 12:57:06 2024.
