 Gaussian 09, Revision C.01,
 Gaussian 09:  AM64L-G09RevC.01 23-Sep-2011

 ------------------------------------------------
 # mpw1pw91/6-31+G** nmr scrf=(pcm,solvent=water)
 ------------------------------------------------

 99/9=1/99;
 -------
 comment
 -------
 Charge =  0 Multiplicity = 1

                         Standard orientation:
 ---------------------------------------------------------------------
 Center     Atomic      Atomic             Coordinates (Angstroms)
 Number     Number       Type             X           Y           Z
 ---------------------------------------------------------------------
      1          6           0       -2.087152    1.142013    0.102221
      2          6           0       -1.319521    0.282386   -0.919373
      3          7           0        0.059566    0.859828   -0.996640
      4          6           0        0.166697    1.921219    0.038916
      5          6           0       -0.992269    1.707447    1.017866
      6          6           0        0.998280   -0.286487   -0.970354
      7          6           0        0.321472   -1.422467   -0.185624
      8          6           0       -1.161279   -1.244079   -0.568250
      9          1           0       -2.599661    1.959098   -0.419188
     10          1           0       -2.845035    0.560611    0.633546
     11          1           0       -1.806161    0.346409   -1.899649
     12          1           0        0.054505    2.898891   -0.451437
     13          1           0        1.145680    1.913168    0.518262
     14          1           0       -1.293135    2.631166    1.523528
     15          1           0       -0.715146    0.973921    1.781409
     16          1           0        1.065380   -0.657634   -2.005023
     17          1           0        0.707565   -2.403173   -0.494140
     18          1           0       -1.374918   -1.832815   -1.465035
     19          8           0       -2.038199   -1.738143    0.437338
     20          1           0       -1.629016   -1.473999    1.282499
     21          8           0        0.425158   -1.299767    1.239303
     22          1           0        1.267050   -0.821954    1.409306
     23          6           0        2.447457    0.003405   -0.595662
     24          1           0        3.051238   -0.854665   -0.909188
     25          1           0        2.807043    0.887129   -1.137669
     26          8           0        2.612274    0.202242    0.827032
     27          1           0        3.511679   -0.080235    1.061435
 ---------------------------------------------------------------------

 SCF Done:  E(RmPW1PW91) =  -594.191264536     A.U. after   13 cycles

      1  C    Isotropic =   167.3604   Anisotropy =    27.1357

      2  C    Isotropic =   126.8780   Anisotropy =    57.3601

      3  N    Isotropic =   190.9003   Anisotropy =   103.3756

      4  C    Isotropic =   143.3553   Anisotropy =    54.0362

      5  C    Isotropic =   169.2262   Anisotropy =    18.4944

      6  C    Isotropic =   131.8082   Anisotropy =    37.7986

      7  C    Isotropic =   119.7876   Anisotropy =    26.4211

      8  C    Isotropic =   118.3370   Anisotropy =    45.5465

      9  H    Isotropic =    29.8411   Anisotropy =    12.4623

     10  H    Isotropic =    29.3972   Anisotropy =     8.3448

     11  H    Isotropic =    28.0010   Anisotropy =     9.4541

     12  H    Isotropic =    28.6024   Anisotropy =    12.0240

     13  H    Isotropic =    27.7450   Anisotropy =     6.7353

     14  H    Isotropic =    30.1860   Anisotropy =    12.4160

     15  H    Isotropic =    29.6139   Anisotropy =     6.7556

     16  H    Isotropic =    28.6471   Anisotropy =     9.4324

     17  H    Isotropic =    27.4596   Anisotropy =     8.3725

     18  H    Isotropic =    27.4789   Anisotropy =     7.3939

     19  O    Isotropic =   315.8635   Anisotropy =    34.2233

     20  H    Isotropic =    28.7600   Anisotropy =    13.9651

     21  O    Isotropic =   307.2689   Anisotropy =    59.0031

     22  H    Isotropic =    25.4041   Anisotropy =    26.8922

     23  C    Isotropic =   130.6316   Anisotropy =    58.6735

     24  H    Isotropic =    27.1124   Anisotropy =     7.7359

     25  H    Isotropic =    26.9957   Anisotropy =     7.8120

     26  O    Isotropic =   312.5079   Anisotropy =    79.6050

     27  H    Isotropic =    29.6736   Anisotropy =    21.8973

 The electronic state is 1-A.
 Alpha  occ. eigenvalues --  -19.27416 -19.25149 -19.24694 -14.40849 -10.30984
 Alpha  occ. eigenvalues --  -10.30028 -10.29899 -10.28689 -10.27213 -10.26185
 Alpha  occ. eigenvalues --  -10.24044 -10.23738  -1.07925  -1.06561  -1.03787
 Alpha  occ. eigenvalues --   -0.95667  -0.82607  -0.78124  -0.75811  -0.71796
 Alpha  occ. eigenvalues --   -0.66610  -0.61948  -0.59139  -0.57682  -0.56194
 Alpha  occ. eigenvalues --   -0.54001  -0.51407  -0.50393  -0.47964  -0.47370
 Alpha  occ. eigenvalues --   -0.45828  -0.44532  -0.43522  -0.42818  -0.40781
 Alpha  occ. eigenvalues --   -0.40257  -0.37968  -0.37508  -0.35835  -0.35072
 Alpha  occ. eigenvalues --   -0.34592  -0.33756  -0.33126  -0.31186  -0.30467
 Alpha  occ. eigenvalues --   -0.28259  -0.22281
 Alpha virt. eigenvalues --   -0.00022   0.01631   0.01726   0.02511   0.04062
 Alpha virt. eigenvalues --    0.04134   0.04634   0.04996   0.05600   0.07446
 Alpha virt. eigenvalues --    0.07577   0.08207   0.08634   0.08959   0.10033

 Mulliken atomic charges:
              1
     1  C   -0.521024
     2  C    0.080225
     3  N   -0.134056
     4  C   -0.270034
     5  C   -0.302460
     6  C   -0.025297
     7  C    0.131283
     8  C   -0.162820
     9  H    0.172708
    10  H    0.183638
    11  H    0.158589
    12  H    0.154763
    13  H    0.176895
    14  H    0.165167
    15  H    0.180686
    16  H    0.182393
    17  H    0.159278
    18  H    0.170460
    19  O   -0.532969
    20  H    0.387799
    21  O   -0.654870
    22  H    0.431012
    23  C   -0.259045
    24  H    0.181203
    25  H    0.177883
    26  O   -0.650936
    27  H    0.419531
 Sum of Mulliken atomic charges =   0.00000

 Dipole moment (field-independent basis, Debye):
    X=              5.3835    Y=              0.7944    Z=             -1.1375  Tot=              5.5594
 Quadrupole moment (field-independent basis, Debye-Ang):
   XX=            -62.2960   YY=            -78.5453   ZZ=            -73.3244
   XY=             -8.5898   XZ=              0.9096   YZ=              5.5249

 Normal termination of Gaussian 09 at Fri May 17 12:49:47 2024.
