 Gaussian 09, Revision C.01,
 Gaussian 09:  AM64L-G09RevC.01 23-Sep-2011

 ------------------------------------------------
 # mpw1pw91/6-31+G** nmr scrf=(pcm,solvent=water)
 ------------------------------------------------

 99/9=1/99;
 -------
 comment
 -------
 Charge =  0 Multiplicity = 1

                         Standard orientation:
 ---------------------------------------------------------------------
 Center     Atomic      Atomic             Coordinates (Angstroms)
 Number     Number       Type             X           Y           Z
 ---------------------------------------------------------------------
      1          6           0       -2.470415   -0.663886    0.356189
      2          6           0       -1.258417   -0.781519   -0.580417
      3          7           0       -0.767743    0.619220   -0.798473
      4          6           0       -1.565360    1.529610    0.046486
      5          6           0       -2.904948    0.801567    0.183664
      6          6           0        0.708236    0.654604   -0.731540
      7          6           0        1.111028   -0.850250   -0.810663
      8          6           0       -0.046120   -1.592308   -0.119796
      9          1           0       -3.258808   -1.380646    0.107895
     10          1           0       -2.166331   -0.839186    1.392684
     11          1           0       -1.573605   -1.201667   -1.546003
     12          1           0       -1.666392    2.516650   -0.420761
     13          1           0       -1.136081    1.683808    1.047559
     14          1           0       -3.500328    0.922833   -0.729181
     15          1           0       -3.495902    1.176493    1.025130
     16          1           0        1.112910    1.175428   -1.610837
     17          1           0        1.139463   -1.150588   -1.866281
     18          1           0       -0.109491   -2.639370   -0.446118
     19          8           0        0.137657   -1.539019    1.296841
     20          1           0        1.109101   -1.563816    1.408669
     21          8           0        2.349264   -1.189706   -0.186914
     22          1           0        2.805153   -0.342026    0.020187
     23          6           0        1.300596    1.381190    0.484929
     24          1           0        0.919239    2.406842    0.543545
     25          1           0        1.060684    0.863553    1.418382
     26          8           0        2.731380    1.416990    0.282619
     27          1           0        3.140575    1.656984    1.130954
 ---------------------------------------------------------------------

 SCF Done:  E(RmPW1PW91) =  -594.193261791     A.U. after   13 cycles

      1  C    Isotropic =   170.1238   Anisotropy =    18.5421

      2  C    Isotropic =   127.7545   Anisotropy =    50.9358

      3  N    Isotropic =   202.2198   Anisotropy =    87.1462

      4  C    Isotropic =   146.8839   Anisotropy =    40.0892

      5  C    Isotropic =   164.8328   Anisotropy =    23.0766

      6  C    Isotropic =   136.7722   Anisotropy =    48.2421

      7  C    Isotropic =   114.7432   Anisotropy =    57.1199

      8  C    Isotropic =   122.8836   Anisotropy =    30.5239

      9  H    Isotropic =    29.9051   Anisotropy =    11.5834

     10  H    Isotropic =    29.4307   Anisotropy =     7.0328

     11  H    Isotropic =    27.9705   Anisotropy =     9.2293

     12  H    Isotropic =    28.7821   Anisotropy =    10.3882

     13  H    Isotropic =    28.8732   Anisotropy =     7.4913

     14  H    Isotropic =    29.6286   Anisotropy =    11.0563

     15  H    Isotropic =    29.6146   Anisotropy =    11.5482

     16  H    Isotropic =    28.0081   Anisotropy =     7.4546

     17  H    Isotropic =    26.8943   Anisotropy =     6.3502

     18  H    Isotropic =    27.7872   Anisotropy =     9.3581

     19  O    Isotropic =   306.4579   Anisotropy =    39.7652

     20  H    Isotropic =    28.1869   Anisotropy =    17.4872

     21  O    Isotropic =   309.9104   Anisotropy =    41.2612

     22  H    Isotropic =    25.2484   Anisotropy =    27.2180

     23  C    Isotropic =   130.3112   Anisotropy =    60.9623

     24  H    Isotropic =    27.3546   Anisotropy =     5.9850

     25  H    Isotropic =    27.1330   Anisotropy =     4.3435

     26  O    Isotropic =   312.8902   Anisotropy =    74.0024

     27  H    Isotropic =    29.8232   Anisotropy =    20.7627

 The electronic state is 1-A.
 Alpha  occ. eigenvalues --  -19.27594 -19.25409 -19.24885 -14.41091 -10.30628
 Alpha  occ. eigenvalues --  -10.30317 -10.29765 -10.28724 -10.27652 -10.26942
 Alpha  occ. eigenvalues --  -10.24551 -10.24342  -1.08293  -1.06589  -1.04011
 Alpha  occ. eigenvalues --   -0.96162  -0.82816  -0.79277  -0.75207  -0.71505
 Alpha  occ. eigenvalues --   -0.67427  -0.61046  -0.60063  -0.57939  -0.55257
 Alpha  occ. eigenvalues --   -0.54424  -0.52004  -0.50360  -0.49842  -0.48168
 Alpha  occ. eigenvalues --   -0.46217  -0.44445  -0.43304  -0.41867  -0.40456
 Alpha  occ. eigenvalues --   -0.39591  -0.38643  -0.37594  -0.36821  -0.35769
 Alpha  occ. eigenvalues --   -0.34905  -0.34636  -0.33686  -0.31594  -0.29633
 Alpha  occ. eigenvalues --   -0.28653  -0.22369
 Alpha virt. eigenvalues --    0.00119   0.01128   0.02086   0.02588   0.03789
 Alpha virt. eigenvalues --    0.04414   0.04664   0.05086   0.05562   0.07274
 Alpha virt. eigenvalues --    0.07913   0.08686   0.09029   0.09312   0.09672

 Mulliken atomic charges:
              1
     1  C   -0.557041
     2  C    0.149360
     3  N   -0.103784
     4  C   -0.227228
     5  C   -0.331987
     6  C   -0.357559
     7  C   -0.033745
     8  C    0.070474
     9  H    0.172279
    10  H    0.187359
    11  H    0.163686
    12  H    0.164988
    13  H    0.152452
    14  H    0.177326
    15  H    0.175089
    16  H    0.173747
    17  H    0.175651
    18  H    0.156970
    19  O   -0.581230
    20  H    0.391853
    21  O   -0.625991
    22  H    0.429194
    23  C   -0.086333
    24  H    0.178440
    25  H    0.195627
    26  O   -0.622800
    27  H    0.413203
 Sum of Mulliken atomic charges =   0.00000

 Dipole moment (field-independent basis, Debye):
    X=             -0.2001    Y=              2.6922    Z=              1.4552  Tot=              3.0668
 Quadrupole moment (field-independent basis, Debye-Ang):
   XX=            -70.9232   YY=            -73.5325   ZZ=            -72.9953
   XY=              5.1059   XZ=              6.9429   YZ=              7.8438

 Normal termination of Gaussian 09 at Fri May 17 12:48:12 2024.
