 Gaussian 09, Revision C.01,
 Gaussian 09:  AM64L-G09RevC.01 23-Sep-2011

 ------------------------------------------------
 # mpw1pw91/6-31+G** nmr scrf=(pcm,solvent=water)
 ------------------------------------------------

 99/9=1/99;
 -------
 comment
 -------
 Charge =  0 Multiplicity = 1

                         Standard orientation:
 ---------------------------------------------------------------------
 Center     Atomic      Atomic             Coordinates (Angstroms)
 Number     Number       Type             X           Y           Z
 ---------------------------------------------------------------------
      1          6           0        2.327505   -0.475688    0.138863
      2          6           0        1.267642    0.001664   -0.870573
      3          7           0        0.111750   -0.951017   -0.741574
      4          6           0        0.420531   -1.878912    0.376145
      5          6           0        1.946627   -1.944748    0.372887
      6          6           0       -1.108980   -0.119195   -0.615607
      7          6           0       -0.673541    1.204848    0.024399
      8          6           0        0.686117    1.433996   -0.656983
      9          1           0        3.347674   -0.343378   -0.234661
     10          1           0        2.239147    0.082458    1.076463
     11          1           0        1.670902   -0.060523   -1.888059
     12          1           0       -0.048750   -2.854370    0.205757
     13          1           0        0.076653   -1.508868    1.350561
     14          1           0        2.300888   -2.571911   -0.454188
     15          1           0        2.349000   -2.351779    1.305846
     16          1           0       -1.441279    0.139783   -1.632337
     17          1           0       -1.379515    2.018102   -0.189315
     18          1           0        0.515298    1.903390   -1.634074
     19          8           0        1.460160    2.310436    0.164034
     20          1           0        2.389440    2.247671   -0.111961
     21          8           0       -0.505611    1.065265    1.438128
     22          1           0        0.251032    1.638368    1.664131
     23          6           0       -2.285827   -0.825712    0.044148
     24          1           0       -2.447284   -1.799228   -0.439912
     25          1           0       -2.099159   -1.005147    1.108870
     26          8           0       -3.432128    0.018021   -0.123093
     27          1           0       -4.166106   -0.404749    0.351675
 ---------------------------------------------------------------------

 SCF Done:  E(RmPW1PW91) =  -594.190133836     A.U. after   13 cycles

      1  C    Isotropic =   168.4052   Anisotropy =    19.4771

      2  C    Isotropic =   127.7560   Anisotropy =    53.1003

      3  N    Isotropic =   190.3034   Anisotropy =    92.7806

      4  C    Isotropic =   144.8325   Anisotropy =    48.5909

      5  C    Isotropic =   166.5122   Anisotropy =    20.9157

      6  C    Isotropic =   131.0195   Anisotropy =    41.4950

      7  C    Isotropic =   120.2831   Anisotropy =    31.3637

      8  C    Isotropic =   119.5499   Anisotropy =    50.4069

      9  H    Isotropic =    30.0230   Anisotropy =    11.1850

     10  H    Isotropic =    29.6194   Anisotropy =     6.1748

     11  H    Isotropic =    27.8593   Anisotropy =     9.0043

     12  H    Isotropic =    28.8334   Anisotropy =     9.6319

     13  H    Isotropic =    28.2695   Anisotropy =     6.3680

     14  H    Isotropic =    29.8095   Anisotropy =    11.3118

     15  H    Isotropic =    29.7148   Anisotropy =    11.7440

     16  H    Isotropic =    28.5534   Anisotropy =     8.0629

     17  H    Isotropic =    27.3103   Anisotropy =     7.8269

     18  H    Isotropic =    27.2024   Anisotropy =     7.1273

     19  O    Isotropic =   303.9856   Anisotropy =    50.3969

     20  H    Isotropic =    30.0323   Anisotropy =    18.4537

     21  O    Isotropic =   314.7076   Anisotropy =    28.5763

     22  H    Isotropic =    28.5922   Anisotropy =    17.0423

     23  C    Isotropic =   136.1313   Anisotropy =    69.8564

     24  H    Isotropic =    27.5172   Anisotropy =     5.4526

     25  H    Isotropic =    27.1410   Anisotropy =     4.7605

     26  O    Isotropic =   316.7446   Anisotropy =    93.3987

     27  H    Isotropic =    30.2361   Anisotropy =    21.3693

 The electronic state is 1-A.
 Alpha  occ. eigenvalues --  -19.26848 -19.25648 -19.24905 -14.41119 -10.30648
 Alpha  occ. eigenvalues --  -10.29884 -10.29760 -10.28045 -10.27775 -10.26471
 Alpha  occ. eigenvalues --  -10.24574 -10.24536  -1.08017  -1.05803  -1.04580
 Alpha  occ. eigenvalues --   -0.96065  -0.82864  -0.78829  -0.75257  -0.71860
 Alpha  occ. eigenvalues --   -0.66598  -0.61351  -0.59895  -0.58006  -0.55199
 Alpha  occ. eigenvalues --   -0.52912  -0.52057  -0.51324  -0.48741  -0.47538
 Alpha  occ. eigenvalues --   -0.46880  -0.44668  -0.43649  -0.41174  -0.40204
 Alpha  occ. eigenvalues --   -0.39148  -0.38350  -0.37159  -0.35939  -0.35654
 Alpha  occ. eigenvalues --   -0.35151  -0.34503  -0.33647  -0.30684  -0.29902
 Alpha  occ. eigenvalues --   -0.28846  -0.22666
 Alpha virt. eigenvalues --   -0.00065   0.01284   0.01884   0.02188   0.03600
 Alpha virt. eigenvalues --    0.04055   0.04917   0.05262   0.05570   0.07110
 Alpha virt. eigenvalues --    0.07872   0.08531   0.08987   0.09195   0.09538

 Mulliken atomic charges:
              1
     1  C   -0.413826
     2  C   -0.046745
     3  N   -0.168286
     4  C   -0.088392
     5  C   -0.522232
     6  C   -0.172750
     7  C    0.154155
     8  C   -0.118162
     9  H    0.178480
    10  H    0.188151
    11  H    0.167105
    12  H    0.161518
    13  H    0.173617
    14  H    0.177195
    15  H    0.176506
    16  H    0.172264
    17  H    0.160243
    18  H    0.174643
    19  O   -0.592206
    20  H    0.392314
    21  O   -0.605369
    22  H    0.393394
    23  C   -0.090420
    24  H    0.168025
    25  H    0.167097
    26  O   -0.575979
    27  H    0.389660
 Sum of Mulliken atomic charges =   0.00000

 Dipole moment (field-independent basis, Debye):
    X=              2.7261    Y=             -1.3213    Z=             -0.3361  Tot=              3.0480
 Quadrupole moment (field-independent basis, Debye-Ang):
   XX=            -62.0423   YY=            -73.8679   ZZ=            -75.2922
   XY=              8.5511   XZ=             -3.4827   YZ=             -5.9041

 Normal termination of Gaussian 09 at Fri May 17 13:06:14 2024.
