 Gaussian 09, Revision C.01,

 ------------------------------------------------
 # mPW1PW91/6-31+G** scrf=(PCM,solvent=water) nmr
 ------------------------------------------------

 99/9=1/99;
 -------
 comment
 -------
 Charge =  0 Multiplicity = 1

 SCF Done:  E(RmPW1PW91) =  -1002.31691863     A.U. after   14 cycles

      1  C    Isotropic =   122.4485   Anisotropy =    51.6326

      2  C    Isotropic =   162.2825   Anisotropy =    23.8974

      3  H    Isotropic =    29.5038   Anisotropy =     6.7958

      4  H    Isotropic =    29.8975   Anisotropy =     9.3337

      5  C    Isotropic =   167.3170   Anisotropy =    21.1694

      6  H    Isotropic =    30.1322   Anisotropy =    10.0685

      7  C    Isotropic =   151.9280   Anisotropy =    29.7013

      8  H    Isotropic =    28.2318   Anisotropy =     4.2293

      9  C    Isotropic =   155.9600   Anisotropy =    13.6608

     10  H    Isotropic =    27.2921   Anisotropy =     6.7598

     11  C    Isotropic =   112.8555   Anisotropy =    37.0005

     12  H    Isotropic =    27.8562   Anisotropy =     3.3155

     13  C    Isotropic =    88.7974   Anisotropy =   120.3776

     14  C    Isotropic =    50.7465   Anisotropy =   188.6775

     15  C    Isotropic =    40.8834   Anisotropy =   128.5768

     16  C    Isotropic =    44.2750   Anisotropy =   122.8620

     17  C    Isotropic =    93.1585   Anisotropy =    99.1101

     18  C    Isotropic =    88.1120   Anisotropy =   108.8078

     19  H    Isotropic =    25.2404   Anisotropy =     6.9448

     20  H    Isotropic =    24.8510   Anisotropy =     7.7312

     21  O    Isotropic =   228.2458   Anisotropy =    41.9446

     22  H    Isotropic =    26.6169   Anisotropy =    15.3739

     23  O    Isotropic =   221.8956   Anisotropy =    78.2999

     24  H    Isotropic =    21.8499   Anisotropy =    27.9052

     25  O    Isotropic =   285.6883   Anisotropy =    40.7715

     26  H    Isotropic =    28.6961   Anisotropy =    18.9746

     27  C    Isotropic =   167.7221   Anisotropy =    46.7136

     28  H    Isotropic =    30.2903   Anisotropy =     9.4419

     29  H    Isotropic =    30.7860   Anisotropy =     9.4030

     30  H    Isotropic =    30.2200   Anisotropy =     9.1267

     31  O    Isotropic =   264.3271   Anisotropy =    47.5995

     32  H    Isotropic =    30.2959   Anisotropy =    16.0860

     33  H    Isotropic =    29.4005   Anisotropy =     6.5292

     34  C    Isotropic =    43.6818   Anisotropy =   181.0750

     35  C    Isotropic =    87.0860   Anisotropy =    99.6750

     36  H    Isotropic =    26.7409   Anisotropy =     6.6876

     37  H    Isotropic =    26.5102   Anisotropy =     7.4879

     38  C    Isotropic =   177.8170   Anisotropy =    27.7942

     39  H    Isotropic =    29.7783   Anisotropy =     8.3435

     40  H    Isotropic =    30.0802   Anisotropy =     8.7741

     41  H    Isotropic =    29.8797   Anisotropy =     6.0905

     42  C    Isotropic =   164.0489   Anisotropy =    30.2548

     43  H    Isotropic =    29.3380   Anisotropy =     7.6306

     44  H    Isotropic =    29.2143   Anisotropy =     7.3428

     45  C    Isotropic =   177.3859   Anisotropy =    29.3643

     46  H    Isotropic =    30.2925   Anisotropy =    12.0948

     47  H    Isotropic =    30.6554   Anisotropy =     7.4265

     48  H    Isotropic =    30.6590   Anisotropy =     7.1051

 Normal termination of Gaussian 09 at Fri Dec 23 14:37:46 2022.
 Gaussian 09:  EM64L-G09RevC.01 23-Sep-2011

 ----------------------------------------------------------------------
 # B3LYP/6-31+G** geom=allcheck test scrf=(pcm,solvent=water,smd,dovacu
 um)
 ----------------------------------------------------------------------

 Structure from the checkpoint file:  01_RRSS_THC_004_optB_NMR.chk
 -------
 comment
 -------
 Charge =  0 Multiplicity = 1

                         Standard orientation:
 ---------------------------------------------------------------------
 Center     Atomic      Atomic             Coordinates (Angstroms)
 Number     Number       Type             X           Y           Z
 ---------------------------------------------------------------------
      1          6           0       -3.228183   -0.894879    0.275613
      2          6           0       -3.669211    0.315085   -0.565685
      3          1           0       -3.652931    0.063515   -1.633491
      4          1           0       -4.701980    0.587980   -0.314193
      5          6           0       -2.785620    1.542464   -0.326789
      6          1           0       -3.115762    2.352517   -0.989383
      7          6           0       -1.288902    1.247386   -0.565695
      8          1           0       -1.205248    0.981307   -1.627437
      9          6           0       -0.838532    0.020742    0.287232
     10          1           0       -1.037657    0.301546    1.329162
     11          6           0       -1.731724   -1.219542    0.010779
     12          1           0       -1.406883   -2.035185    0.670370
     13          6           0        0.649756   -0.329551    0.183126
     14          6           0        3.452782   -0.831444    0.073579
     15          6           0        1.307700   -0.577417   -1.032006
     16          6           0        1.437317   -0.385317    1.346951
     17          6           0        2.815267   -0.626036    1.300197
     18          6           0        2.684808   -0.802820   -1.092877
     19          1           0        3.401635   -0.653532    2.214263
     20          1           0        3.148795   -0.967217   -2.062661
     21          8           0        0.841013   -0.207442    2.568029
     22          1           0        1.533819   -0.145267    3.245772
     23          8           0        0.655521   -0.640535   -2.232648
     24          1           0       -0.262130   -0.934152   -2.044975
     25          8           0       -1.558370   -1.663227   -1.346625
     26          1           0       -1.869590   -2.587324   -1.385580
     27          6           0       -4.133272   -2.093025   -0.031656
     28          1           0       -5.168806   -1.880939    0.258924
     29          1           0       -3.823338   -2.970455    0.547191
     30          1           0       -4.124816   -2.357640   -1.093551
     31          8           0       -3.424013   -0.565685    1.656612
     32          1           0       -3.104073   -1.306739    2.199988
     33          1           0       -2.948806    1.893743    0.699395
     34          6           0       -0.449374    2.507033   -0.336379
     35          6           0        0.295090    3.027633   -1.327858
     36          1           0        0.903457    3.914269   -1.180859
     37          1           0        0.332120    2.567588   -2.311414
     38          6           0       -0.461874    3.146017    1.026355
     39          1           0       -1.455984    3.535158    1.264599
     40          1           0        0.237625    3.987165    1.087387
     41          1           0       -0.171052    2.430441    1.799872
     42          6           0        4.939924   -1.059731    0.004773
     43          1           0        5.273393   -1.593799    0.902885
     44          1           0        5.174631   -1.715922   -0.842220
     45          6           0        5.706042    0.247326   -0.130087
     46          1           0        6.782013    0.052107   -0.177706
     47          1           0        5.518398    0.907758    0.723335
     48          1           0        5.417985    0.784638   -1.040052
 ---------------------------------------------------------------------

 SCF Done:  E(RB3LYP) =  -1002.55845125     A.U. after   14 cycles

 The electronic state is 1-A.
 Alpha  occ. eigenvalues --  -19.18685 -19.17813 -19.16767 -19.16086 -10.25361
 Alpha  occ. eigenvalues --  -10.24830 -10.24409 -10.24389 -10.19832 -10.19667
 Alpha  occ. eigenvalues --  -10.19657 -10.19276 -10.18945 -10.18076 -10.17869
 Alpha  occ. eigenvalues --  -10.17608 -10.17490 -10.17440 -10.17213 -10.17073
 Alpha  occ. eigenvalues --  -10.16971 -10.16920  -1.06470  -1.05846  -1.04050
 Alpha  occ. eigenvalues --   -1.02772  -0.85562  -0.83491  -0.79135  -0.78894
 Alpha  occ. eigenvalues --   -0.75573  -0.73953  -0.73163  -0.71105  -0.68262
 Alpha  occ. eigenvalues --   -0.67445  -0.64326  -0.62007  -0.60926  -0.59851
 Alpha  occ. eigenvalues --   -0.58589  -0.56617  -0.54412  -0.53100  -0.52391
 Alpha  occ. eigenvalues --   -0.49963  -0.49388  -0.48721  -0.47735  -0.46101
 Alpha  occ. eigenvalues --   -0.44898  -0.44130  -0.43768  -0.43497  -0.42775
 Alpha  occ. eigenvalues --   -0.42082  -0.41578  -0.40978  -0.40644  -0.39877
 Alpha  occ. eigenvalues --   -0.39799  -0.39385  -0.38610  -0.37734  -0.37260
 Alpha  occ. eigenvalues --   -0.36876  -0.36559  -0.36164  -0.35757  -0.35156
 Alpha  occ. eigenvalues --   -0.34806  -0.34038  -0.33499  -0.33050  -0.32416
 Alpha  occ. eigenvalues --   -0.31667  -0.30985  -0.29914  -0.29279  -0.26924
 Alpha  occ. eigenvalues --   -0.24581  -0.22741  -0.21869
 Alpha virt. eigenvalues --   -0.00589  -0.00062   0.00372   0.00607   0.01357
 Alpha virt. eigenvalues --    0.01884   0.02135   0.02775   0.03314   0.03658
 Alpha virt. eigenvalues --    0.03850   0.04382   0.04515   0.04910   0.05558

 Mulliken atomic charges:
              1
     1  C    0.298194
     2  C   -0.286823
     3  H    0.167028
     4  H    0.155816
     5  C   -0.690597
     6  H    0.150688
     7  C    0.170550
     8  H    0.140938
     9  C   -0.286454
    10  H    0.172150
    11  C   -0.235932
    12  H    0.155756
    13  C    0.331361
    14  C   -0.067683
    15  C   -1.310591
    16  C    0.476634
    17  C   -0.116446
    18  C    0.432261
    19  H    0.148250
    20  H    0.146624
    21  O   -0.595189
    22  H    0.446668
    23  O   -0.623278
    24  H    0.474516
    25  O   -0.678269
    26  H    0.446970
    27  C   -0.320450
    28  H    0.167622
    29  H    0.163435
    30  H    0.169127
    31  O   -0.594560
    32  H    0.404577
    33  H    0.155639
    34  C    0.616802
    35  C   -0.518994
    36  H    0.145155
    37  H    0.140887
    38  C   -0.636491
    39  H    0.172500
    40  H    0.156991
    41  H    0.170763
    42  C    0.018635
    43  H    0.151015
    44  H    0.151610
    45  C   -0.605249
    46  H    0.152174
    47  H    0.157829
    48  H    0.157844
 Sum of Mulliken atomic charges =   0.00000

 Dipole moment (field-independent basis, Debye):
    X=             -0.7309    Y=             -4.1895    Z=              3.6817  Tot=              5.6250
 Quadrupole moment (field-independent basis, Debye-Ang):
   XX=           -123.9361   YY=           -126.5929   ZZ=           -133.4529
   XY=              9.4858   XZ=             13.9761   YZ=             -0.0466

 Normal termination of Gaussian 09 at Fri Dec 23 14:58:22 2022.
