 Gaussian 09, Revision C.01,

 ------------------------------------------------
 # mPW1PW91/6-31+G** scrf=(PCM,solvent=water) nmr
 ------------------------------------------------

 99/9=1/99;
 -------
 comment
 -------
 Charge =  0 Multiplicity = 1

 SCF Done:  E(RmPW1PW91) =  -1002.31599901     A.U. after   14 cycles

      1  C    Isotropic =   121.7527   Anisotropy =    51.9937

      2  C    Isotropic =   160.9713   Anisotropy =    23.4426

      3  H    Isotropic =    29.4404   Anisotropy =     6.8341

      4  H    Isotropic =    29.9082   Anisotropy =     9.4707

      5  C    Isotropic =   167.3523   Anisotropy =    29.1349

      6  H    Isotropic =    30.0654   Anisotropy =    10.0535

      7  C    Isotropic =   152.6728   Anisotropy =    31.9142

      8  H    Isotropic =    28.2384   Anisotropy =     4.1975

      9  C    Isotropic =   157.1027   Anisotropy =    18.7712

     10  H    Isotropic =    27.8602   Anisotropy =     6.8504

     11  C    Isotropic =   113.3913   Anisotropy =    37.4325

     12  H    Isotropic =    27.5812   Anisotropy =     3.3683

     13  C    Isotropic =    87.9213   Anisotropy =   119.9298

     14  C    Isotropic =    49.3486   Anisotropy =   189.6545

     15  C    Isotropic =    41.1011   Anisotropy =   130.0703

     16  C    Isotropic =    44.8956   Anisotropy =   124.3505

     17  C    Isotropic =    92.0245   Anisotropy =    96.9619

     18  C    Isotropic =    87.5285   Anisotropy =   108.9798

     19  H    Isotropic =    25.2924   Anisotropy =     7.0279

     20  H    Isotropic =    24.9739   Anisotropy =     7.7806

     21  O    Isotropic =   227.5743   Anisotropy =    40.2028

     22  H    Isotropic =    26.6103   Anisotropy =    15.5049

     23  O    Isotropic =   217.9452   Anisotropy =    77.4490

     24  H    Isotropic =    21.7127   Anisotropy =    28.2634

     25  O    Isotropic =   285.6494   Anisotropy =    42.4308

     26  H    Isotropic =    28.5015   Anisotropy =    18.8108

     27  C    Isotropic =   170.7859   Anisotropy =    42.0522

     28  H    Isotropic =    30.2121   Anisotropy =    10.1098

     29  H    Isotropic =    30.5167   Anisotropy =     9.9895

     30  H    Isotropic =    30.2040   Anisotropy =     8.6095

     31  O    Isotropic =   273.2362   Anisotropy =    38.9015

     32  H    Isotropic =    29.2203   Anisotropy =    14.6746

     33  H    Isotropic =    29.8347   Anisotropy =     6.5202

     34  C    Isotropic =    44.8695   Anisotropy =   180.6995

     35  C    Isotropic =    86.2036   Anisotropy =    99.1376

     36  H    Isotropic =    26.7688   Anisotropy =     6.7814

     37  H    Isotropic =    26.5310   Anisotropy =     7.5049

     38  C    Isotropic =   178.0930   Anisotropy =    27.8388

     39  H    Isotropic =    29.7917   Anisotropy =     8.3469

     40  H    Isotropic =    30.1243   Anisotropy =     8.7471

     41  H    Isotropic =    29.8846   Anisotropy =     6.2346

     42  C    Isotropic =   164.7928   Anisotropy =    27.2294

     43  H    Isotropic =    29.1483   Anisotropy =     7.1613

     44  H    Isotropic =    29.1983   Anisotropy =     7.3139

     45  C    Isotropic =   178.4737   Anisotropy =    31.8816

     46  H    Isotropic =    30.2339   Anisotropy =    12.0780

     47  H    Isotropic =    30.5831   Anisotropy =     7.3772

     48  H    Isotropic =    30.6032   Anisotropy =     7.4616

 Normal termination of Gaussian 09 at Fri Dec 23 14:41:46 2022.
 Gaussian 09:  EM64L-G09RevC.01 23-Sep-2011

 ----------------------------------------------------------------------
 # B3LYP/6-31+G** geom=allcheck test scrf=(pcm,solvent=water,smd,dovacu
 um)
 ----------------------------------------------------------------------

 Structure from the checkpoint file:  01_RRSS_THC_008_optB_NMR.chk
 -------
 comment
 -------
 Charge =  0 Multiplicity = 1

                         Standard orientation:
 ---------------------------------------------------------------------
 Center     Atomic      Atomic             Coordinates (Angstroms)
 Number     Number       Type             X           Y           Z
 ---------------------------------------------------------------------
      1          6           0       -3.044468   -1.253111    0.322791
      2          6           0       -3.690668   -0.117594   -0.491536
      3          1           0       -3.675585   -0.366957   -1.560182
      4          1           0       -4.742931   -0.004024   -0.201788
      5          6           0       -2.997419    1.232700   -0.296883
      6          1           0       -3.462834    1.967941   -0.965858
      7          6           0       -1.479785    1.165443   -0.571729
      8          1           0       -1.380448    0.892160   -1.630377
      9          6           0       -0.825280    0.041798    0.290680
     10          1           0       -1.046851    0.307996    1.330787
     11          6           0       -1.514881   -1.330440    0.051341
     12          1           0       -1.056591   -2.072275    0.718761
     13          6           0        0.698077   -0.062021    0.166480
     14          6           0        3.543205   -0.103914    0.018297
     15          6           0        1.370328   -0.225460   -1.054878
     16          6           0        1.500113    0.032400    1.318055
     17          6           0        2.897951    0.011803    1.252694
     18          6           0        2.764701   -0.230371   -1.134672
     19          1           0        3.494165    0.089184    2.157502
     20          1           0        3.235938   -0.348121   -2.107767
     21          8           0        0.898035    0.143496    2.544512
     22          1           0        1.587888    0.219633    3.224076
     23          8           0        0.719308   -0.414635   -2.242722
     24          1           0       -0.130347   -0.860634   -2.035135
     25          8           0       -1.283910   -1.757855   -1.303785
     26          1           0       -1.419133   -2.725215   -1.314514
     27          6           0       -3.738026   -2.577756   -0.023386
     28          1           0       -4.794169   -2.550575    0.269999
     29          1           0       -3.284942   -3.407709    0.530917
     30          1           0       -3.689733   -2.806865   -1.092530
     31          8           0       -3.292974   -1.051659    1.719753
     32          1           0       -2.996038   -0.164747    1.981839
     33          1           0       -3.189778    1.582714    0.724082
     34          6           0       -0.844278    2.545680   -0.386273
     35          6           0       -0.221412    3.156976   -1.409330
     36          1           0        0.244849    4.130620   -1.296129
     37          1           0       -0.140645    2.689181   -2.386791
     38          6           0       -0.914236    3.203544    0.965649
     39          1           0       -1.949162    3.438486    1.230608
     40          1           0       -0.352741    4.144108    0.990164
     41          1           0       -0.492647    2.558151    1.740540
     42          6           0        5.046705   -0.133004   -0.067303
     43          1           0        5.371322    0.311983   -1.015833
     44          1           0        5.473164    0.495928    0.723670
     45          6           0        5.593118   -1.547624    0.050254
     46          1           0        6.685696   -1.537864   -0.015154
     47          1           0        5.210903   -2.189091   -0.751070
     48          1           0        5.314501   -2.003061    1.006619
 ---------------------------------------------------------------------

 SCF Done:  E(RB3LYP) =  -1002.55856767     A.U. after   14 cycles

 The electronic state is 1-A.
 Alpha  occ. eigenvalues --  -19.18728 -19.17829 -19.16696 -19.16365 -10.25420
 Alpha  occ. eigenvalues --  -10.24850 -10.24583 -10.24445 -10.20109 -10.19724
 Alpha  occ. eigenvalues --  -10.19678 -10.19358 -10.19088 -10.18083 -10.17897
 Alpha  occ. eigenvalues --  -10.17699 -10.17542 -10.17494 -10.17251 -10.17191
 Alpha  occ. eigenvalues --  -10.17078 -10.16963  -1.06496  -1.05845  -1.04068
 Alpha  occ. eigenvalues --   -1.02949  -0.85614  -0.83576  -0.79199  -0.78919
 Alpha  occ. eigenvalues --   -0.75686  -0.74387  -0.73182  -0.71154  -0.68311
 Alpha  occ. eigenvalues --   -0.67442  -0.64377  -0.62054  -0.60793  -0.59901
 Alpha  occ. eigenvalues --   -0.58762  -0.56664  -0.54239  -0.53193  -0.52628
 Alpha  occ. eigenvalues --   -0.50574  -0.49515  -0.48972  -0.47367  -0.46506
 Alpha  occ. eigenvalues --   -0.45298  -0.44107  -0.43954  -0.43493  -0.42790
 Alpha  occ. eigenvalues --   -0.41868  -0.41400  -0.41080  -0.40212  -0.40070
 Alpha  occ. eigenvalues --   -0.39581  -0.38790  -0.38626  -0.38221  -0.37632
 Alpha  occ. eigenvalues --   -0.37177  -0.36887  -0.36096  -0.35740  -0.35383
 Alpha  occ. eigenvalues --   -0.34657  -0.33906  -0.33429  -0.33098  -0.32484
 Alpha  occ. eigenvalues --   -0.31958  -0.31322  -0.30032  -0.29706  -0.26890
 Alpha  occ. eigenvalues --   -0.24631  -0.22810  -0.21872
 Alpha virt. eigenvalues --   -0.00705   0.00066   0.00424   0.00581   0.01385
 Alpha virt. eigenvalues --    0.01668   0.02150   0.02811   0.03417   0.03653
 Alpha virt. eigenvalues --    0.04021   0.04285   0.04569   0.04781   0.05497

 Mulliken atomic charges:
              1
     1  C    0.204179
     2  C   -0.309394
     3  H    0.163293
     4  H    0.159787
     5  C   -0.544867
     6  H    0.157036
     7  C    0.128658
     8  H    0.144654
     9  C   -0.315129
    10  H    0.166824
    11  C   -0.217800
    12  H    0.157136
    13  C    0.443501
    14  C   -0.000545
    15  C   -1.302282
    16  C    0.410743
    17  C   -0.132843
    18  C    0.365509
    19  H    0.148494
    20  H    0.146691
    21  O   -0.595011
    22  H    0.449009
    23  O   -0.626653
    24  H    0.476704
    25  O   -0.682984
    26  H    0.445000
    27  C   -0.345275
    28  H    0.168202
    29  H    0.164517
    30  H    0.177195
    31  O   -0.574980
    32  H    0.406415
    33  H    0.156551
    34  C    0.657965
    35  C   -0.534257
    36  H    0.145435
    37  H    0.141398
    38  C   -0.623701
    39  H    0.172856
    40  H    0.157250
    41  H    0.171422
    42  C   -0.058506
    43  H    0.151805
    44  H    0.151318
    45  C   -0.592086
    46  H    0.151901
    47  H    0.157272
    48  H    0.157595
 Sum of Mulliken atomic charges =   0.00000

 Dipole moment (field-independent basis, Debye):
    X=             -0.1320    Y=             -1.1982    Z=              3.0511  Tot=              3.2806
 Quadrupole moment (field-independent basis, Debye-Ang):
   XX=           -124.8202   YY=           -129.8073   ZZ=           -136.6368
   XY=             -0.1490   XZ=             15.1330   YZ=             10.0892

 Normal termination of Gaussian 09 at Fri Dec 23 15:06:19 2022.
