 Gaussian 09, Revision C.01,

 ------------------------------------------------
 # mPW1PW91/6-31+G** scrf=(PCM,solvent=water) nmr
 ------------------------------------------------

 99/9=1/99;
 -------
 comment
 -------
 Charge =  0 Multiplicity = 1

 SCF Done:  E(RmPW1PW91) =  -1002.31462397     A.U. after   14 cycles

      1  C    Isotropic =   122.6924   Anisotropy =    50.1604

      2  C    Isotropic =   158.2046   Anisotropy =    23.8064

      3  H    Isotropic =    29.4063   Anisotropy =     6.2997

      4  H    Isotropic =    30.2641   Anisotropy =     8.9089

      5  C    Isotropic =   163.2053   Anisotropy =    29.1118

      6  H    Isotropic =    29.7998   Anisotropy =     9.0296

      7  C    Isotropic =   154.3085   Anisotropy =    26.2417

      8  H    Isotropic =    28.5352   Anisotropy =     4.5831

      9  C    Isotropic =   154.8629   Anisotropy =    16.6448

     10  H    Isotropic =    27.3619   Anisotropy =     6.9897

     11  C    Isotropic =   115.3327   Anisotropy =    34.6219

     12  H    Isotropic =    27.4909   Anisotropy =     3.8428

     13  C    Isotropic =    86.0805   Anisotropy =   121.9732

     14  C    Isotropic =    50.7722   Anisotropy =   189.5452

     15  C    Isotropic =    41.6512   Anisotropy =   130.0867

     16  C    Isotropic =    44.6136   Anisotropy =   125.2822

     17  C    Isotropic =    92.2007   Anisotropy =    95.6791

     18  C    Isotropic =    88.0246   Anisotropy =   107.8872

     19  H    Isotropic =    25.2675   Anisotropy =     7.1043

     20  H    Isotropic =    24.9263   Anisotropy =     7.7313

     21  O    Isotropic =   227.5595   Anisotropy =    48.0876

     22  H    Isotropic =    26.6523   Anisotropy =    15.3827

     23  O    Isotropic =   218.9556   Anisotropy =    83.3350

     24  H    Isotropic =    21.5752   Anisotropy =    28.3430

     25  O    Isotropic =   287.6064   Anisotropy =    46.0671

     26  H    Isotropic =    28.4848   Anisotropy =    19.2049

     27  C    Isotropic =   166.7570   Anisotropy =    47.0134

     28  H    Isotropic =    30.5836   Anisotropy =     9.2850

     29  H    Isotropic =    30.4310   Anisotropy =     9.4687

     30  H    Isotropic =    30.1203   Anisotropy =     8.8586

     31  O    Isotropic =   259.3043   Anisotropy =   100.4109

     32  H    Isotropic =    30.7229   Anisotropy =    17.5257

     33  H    Isotropic =    29.8224   Anisotropy =     6.1916

     34  C    Isotropic =    42.1737   Anisotropy =   184.6430

     35  C    Isotropic =    91.5854   Anisotropy =   117.9690

     36  H    Isotropic =    26.4439   Anisotropy =     5.1446

     37  H    Isotropic =    26.3668   Anisotropy =     7.4016

     38  C    Isotropic =   169.7690   Anisotropy =    39.6603

     39  H    Isotropic =    29.9928   Anisotropy =     6.0934

     40  H    Isotropic =    30.0859   Anisotropy =     8.9186

     41  H    Isotropic =    29.6378   Anisotropy =     8.2483

     42  C    Isotropic =   164.0547   Anisotropy =    30.1181

     43  H    Isotropic =    29.3497   Anisotropy =     7.5168

     44  H    Isotropic =    29.2300   Anisotropy =     7.4043

     45  C    Isotropic =   178.4278   Anisotropy =    27.5522

     46  H    Isotropic =    30.2704   Anisotropy =    12.0708

     47  H    Isotropic =    30.6832   Anisotropy =     7.4544

     48  H    Isotropic =    30.6557   Anisotropy =     7.2135

 Normal termination of Gaussian 09 at Fri Dec 23 14:37:05 2022.
 Gaussian 09:  EM64L-G09RevC.01 23-Sep-2011

 ----------------------------------------------------------------------
 # B3LYP/6-31+G** geom=allcheck test scrf=(pcm,solvent=water,smd,dovacu
 um)
 ----------------------------------------------------------------------

 Structure from the checkpoint file:  01_RRSS_THC_005_optB_NMR.chk
 -------
 comment
 -------
 Charge =  0 Multiplicity = 1

                         Standard orientation:
 ---------------------------------------------------------------------
 Center     Atomic      Atomic             Coordinates (Angstroms)
 Number     Number       Type             X           Y           Z
 ---------------------------------------------------------------------
      1          6           0       -3.232120   -0.935892    0.195473
      2          6           0       -3.660218    0.383400   -0.470098
      3          1           0       -3.638440    0.281671   -1.562404
      4          1           0       -4.693308    0.626509   -0.191296
      5          6           0       -2.771499    1.558901   -0.060743
      6          1           0       -3.096711    2.452832   -0.608289
      7          6           0       -1.276633    1.290409   -0.333285
      8          1           0       -1.175066    1.175925   -1.419710
      9          6           0       -0.833146   -0.045966    0.342334
     10          1           0       -1.027234    0.082774    1.414454
     11          6           0       -1.735371   -1.232533   -0.098188
     12          1           0       -1.418929   -2.129687    0.450606
     13          6           0        0.656501   -0.372172    0.176562
     14          6           0        3.460613   -0.841919   -0.031330
     15          6           0        1.300868   -0.456618   -1.068075
     16          6           0        1.460667   -0.566944    1.314083
     17          6           0        2.838605   -0.794757    1.219248
     18          6           0        2.677727   -0.666930   -1.174654
     19          1           0        3.437261   -0.930789    2.115395
     20          1           0        3.129673   -0.703602   -2.163109
     21          8           0        0.883318   -0.534236    2.556204
     22          1           0        1.577199   -0.627949    3.228096
     23          8           0        0.635049   -0.362006   -2.259216
     24          1           0       -0.276621   -0.690545   -2.101409
     25          8           0       -1.562023   -1.495141   -1.503613
     26          1           0       -1.812633   -2.429115   -1.639299
     27          6           0       -4.135541   -2.077401   -0.285888
     28          1           0       -5.176274   -1.901480    0.010221
     29          1           0       -3.838809   -3.025541    0.176706
     30          1           0       -4.108376   -2.197237   -1.373397
     31          8           0       -3.413673   -0.828484    1.612090
     32          1           0       -4.332707   -0.557573    1.781488
     33          1           0       -2.929861    1.773946    1.004184
     34          6           0       -0.466564    2.525184    0.067540
     35          6           0       -0.155047    2.832343    1.338550
     36          1           0        0.429516    3.713636    1.582962
     37          1           0       -0.466970    2.208918    2.170738
     38          6           0       -0.018486    3.402286   -1.070308
     39          1           0        0.631699    2.841158   -1.749258
     40          1           0        0.540362    4.277371   -0.722216
     41          1           0       -0.884409    3.763547   -1.634422
     42          6           0        4.947098   -1.054366   -0.146821
     43          1           0        5.292868   -1.697053    0.671983
     44          1           0        5.172291   -1.596857   -1.073141
     45          6           0        5.709137    0.261809   -0.123961
     46          1           0        6.784765    0.077829   -0.209219
     47          1           0        5.531123    0.807882    0.808681
     48          1           0        5.408676    0.909359   -0.954693
 ---------------------------------------------------------------------

 SCF Done:  E(RB3LYP) =  -1002.55640436     A.U. after   14 cycles

 The electronic state is 1-A.
 Alpha  occ. eigenvalues --  -19.18662 -19.17984 -19.16674 -19.15958 -10.25344
 Alpha  occ. eigenvalues --  -10.24810 -10.24621 -10.24422 -10.19868 -10.19633
 Alpha  occ. eigenvalues --  -10.19572 -10.19285 -10.18897 -10.18068 -10.17851
 Alpha  occ. eigenvalues --  -10.17528 -10.17470 -10.17420 -10.17272 -10.17069
 Alpha  occ. eigenvalues --  -10.16951 -10.16750  -1.06460  -1.05881  -1.04052
 Alpha  occ. eigenvalues --   -1.02806  -0.85537  -0.83475  -0.79146  -0.78768
 Alpha  occ. eigenvalues --   -0.75458  -0.74131  -0.73131  -0.71121  -0.68041
 Alpha  occ. eigenvalues --   -0.67495  -0.64410  -0.62048  -0.60714  -0.59960
 Alpha  occ. eigenvalues --   -0.58713  -0.57291  -0.54233  -0.52827  -0.51181
 Alpha  occ. eigenvalues --   -0.50116  -0.49130  -0.48347  -0.47496  -0.46945
 Alpha  occ. eigenvalues --   -0.45532  -0.44298  -0.44188  -0.43103  -0.42671
 Alpha  occ. eigenvalues --   -0.42329  -0.41363  -0.40945  -0.40555  -0.40123
 Alpha  occ. eigenvalues --   -0.39688  -0.39322  -0.38652  -0.38032  -0.37342
 Alpha  occ. eigenvalues --   -0.37062  -0.36404  -0.36160  -0.35987  -0.35047
 Alpha  occ. eigenvalues --   -0.34462  -0.33947  -0.33733  -0.33051  -0.32632
 Alpha  occ. eigenvalues --   -0.31649  -0.30731  -0.29850  -0.28386  -0.27504
 Alpha  occ. eigenvalues --   -0.24345  -0.22697  -0.21842
 Alpha virt. eigenvalues --   -0.00474  -0.00083   0.00183   0.00741   0.01399
 Alpha virt. eigenvalues --    0.01950   0.02038   0.02610   0.03300   0.03786
 Alpha virt. eigenvalues --    0.04133   0.04381   0.04581   0.05069   0.05344

 Mulliken atomic charges:
              1
     1  C    0.306336
     2  C   -0.320662
     3  H    0.162381
     4  H    0.156014
     5  C   -0.534851
     6  H    0.150952
     7  C    0.020967
     8  H    0.145409
     9  C   -0.130832
    10  H    0.170163
    11  C   -0.312998
    12  H    0.156771
    13  C    0.285019
    14  C   -0.031912
    15  C   -1.305437
    16  C    0.653229
    17  C   -0.178768
    18  C    0.354131
    19  H    0.147685
    20  H    0.146199
    21  O   -0.595502
    22  H    0.447835
    23  O   -0.626907
    24  H    0.472768
    25  O   -0.666917
    26  H    0.446016
    27  C   -0.379167
    28  H    0.164822
    29  H    0.163391
    30  H    0.169739
    31  O   -0.616147
    32  H    0.412929
    33  H    0.157282
    34  C    0.566453
    35  C   -0.482576
    36  H    0.145539
    37  H    0.144730
    38  C   -0.639375
    39  H    0.170530
    40  H    0.155004
    41  H    0.171066
    42  C    0.013410
    43  H    0.150903
    44  H    0.151447
    45  C   -0.604754
    46  H    0.152250
    47  H    0.157744
    48  H    0.157690
 Sum of Mulliken atomic charges =   0.00000

 Dipole moment (field-independent basis, Debye):
    X=             -2.9408    Y=             -2.3802    Z=              1.1229  Tot=              3.9464
 Quadrupole moment (field-independent basis, Debye-Ang):
   XX=           -104.9429   YY=           -130.0861   ZZ=           -136.3723
   XY=              1.9905   XZ=             12.4057   YZ=              1.1967

 Normal termination of Gaussian 09 at Fri Dec 23 14:57:55 2022.
