 Gaussian 09, Revision C.01,

 ------------------------------------------------
 # mPW1PW91/6-31+G** scrf=(PCM,solvent=water) nmr
 ------------------------------------------------

 99/9=1/99;
 -------
 comment
 -------
 Charge =  0 Multiplicity = 1

 SCF Done:  E(RmPW1PW91) =  -1002.30276206     A.U. after   14 cycles

      1  C    Isotropic =   121.1934   Anisotropy =    45.3996

      2  C    Isotropic =   161.0723   Anisotropy =    28.3943

      3  H    Isotropic =    29.9813   Anisotropy =     9.4199

      4  H    Isotropic =    29.4322   Anisotropy =     6.6664

      5  C    Isotropic =   165.6065   Anisotropy =    22.4947

      6  H    Isotropic =    29.5409   Anisotropy =     8.0723

      7  C    Isotropic =   151.5735   Anisotropy =    19.0243

      8  H    Isotropic =    28.3562   Anisotropy =     5.7881

      9  C    Isotropic =   148.7453   Anisotropy =    25.4458

     10  H    Isotropic =    28.2881   Anisotropy =     5.9535

     11  C    Isotropic =   119.2398   Anisotropy =    30.4094

     12  H    Isotropic =    26.3524   Anisotropy =     2.8319

     13  C    Isotropic =    90.9586   Anisotropy =   120.8064

     14  C    Isotropic =    49.8984   Anisotropy =   189.3777

     15  C    Isotropic =    41.8302   Anisotropy =   127.2737

     16  C    Isotropic =    43.6064   Anisotropy =   120.5830

     17  C    Isotropic =    91.7303   Anisotropy =    97.4806

     18  C    Isotropic =    90.7111   Anisotropy =   101.0370

     19  H    Isotropic =    25.1587   Anisotropy =     7.8196

     20  H    Isotropic =    25.0604   Anisotropy =     6.9972

     21  O    Isotropic =   232.0176   Anisotropy =    56.3701

     22  H    Isotropic =    26.5612   Anisotropy =    15.7069

     23  O    Isotropic =   225.2360   Anisotropy =    48.1471

     24  H    Isotropic =    26.3859   Anisotropy =    15.0718

     25  O    Isotropic =   298.7242   Anisotropy =    41.6752

     26  H    Isotropic =    29.1340   Anisotropy =    19.3238

     27  C    Isotropic =   174.7969   Anisotropy =    32.5380

     28  H    Isotropic =    30.7378   Anisotropy =     9.9461

     29  H    Isotropic =    30.1684   Anisotropy =     8.0942

     30  H    Isotropic =    29.9197   Anisotropy =     7.6415

     31  O    Isotropic =   255.2982   Anisotropy =    76.3162

     32  H    Isotropic =    28.3681   Anisotropy =    14.2780

     33  H    Isotropic =    29.9271   Anisotropy =     9.5375

     34  C    Isotropic =    42.1291   Anisotropy =   182.0573

     35  C    Isotropic =    85.9900   Anisotropy =   112.4084

     36  H    Isotropic =    26.2985   Anisotropy =     5.0653

     37  H    Isotropic =    26.1034   Anisotropy =     5.9857

     38  C    Isotropic =   166.3922   Anisotropy =    43.5622

     39  H    Isotropic =    30.5005   Anisotropy =     6.0557

     40  H    Isotropic =    30.1719   Anisotropy =     8.6512

     41  H    Isotropic =    29.8858   Anisotropy =     8.3423

     42  C    Isotropic =   164.2307   Anisotropy =    30.2212

     43  H    Isotropic =    29.2879   Anisotropy =     7.6693

     44  H    Isotropic =    29.2153   Anisotropy =     7.5987

     45  C    Isotropic =   176.2229   Anisotropy =    31.0893

     46  H    Isotropic =    30.3012   Anisotropy =    12.0266

     47  H    Isotropic =    30.6247   Anisotropy =     7.1515

     48  H    Isotropic =    30.5908   Anisotropy =     7.1633

 Normal termination of Gaussian 09 at Fri Dec 23 16:59:54 2022.
 Gaussian 09:  EM64L-G09RevC.01 23-Sep-2011

 ----------------------------------------------------------------------
 # B3LYP/6-31+G** geom=allcheck test scrf=(pcm,solvent=water,smd,dovacu
 um)
 ----------------------------------------------------------------------

 Structure from the checkpoint file:  02_RSSS_THC_001_optB_NMR.chk
 -------
 comment
 -------
 Charge =  0 Multiplicity = 1

                         Standard orientation:
 ---------------------------------------------------------------------
 Center     Atomic      Atomic             Coordinates (Angstroms)
 Number     Number       Type             X           Y           Z
 ---------------------------------------------------------------------
      1          6           0        3.294271   -0.699464    0.020113
      2          6           0        3.635453    0.793352    0.011572
      3          1           0        4.656312    0.946027    0.386051
      4          1           0        3.670375    1.159096   -1.020504
      5          6           0        2.663943    1.633723    0.836462
      6          1           0        2.841098    1.418837    1.898578
      7          6           0        1.167464    1.383393    0.540857
      8          1           0        0.653467    1.788437    1.425565
      9          6           0        0.827259   -0.143593    0.503123
     10          1           0        1.028367   -0.536945    1.509942
     11          6           0        1.816460   -0.922743   -0.397691
     12          1           0        1.728431   -0.629199   -1.447111
     13          6           0       -0.678213   -0.388207    0.317018
     14          6           0       -3.499712   -0.731339    0.096979
     15          6           0       -1.540079   -0.194962    1.415077
     16          6           0       -1.280025   -0.758233   -0.893164
     17          6           0       -2.665777   -0.925934   -1.008020
     18          6           0       -2.924888   -0.359489    1.314194
     19          1           0       -3.105084   -1.219496   -1.958090
     20          1           0       -3.563642   -0.195872    2.177747
     21          8           0       -0.511592   -0.990033   -1.998249
     22          1           0       -1.079760   -0.964567   -2.786694
     23          8           0       -1.004929    0.172786    2.622387
     24          1           0       -1.714388    0.214514    3.283903
     25          8           0        1.561025   -2.339381   -0.365304
     26          1           0        0.678640   -2.442592   -0.771553
     27          6           0        3.657483   -1.345568    1.365788
     28          1           0        4.726719   -1.218866    1.573693
     29          1           0        3.482969   -2.427109    1.347654
     30          1           0        3.100198   -0.922386    2.205339
     31          8           0        4.126916   -1.342592   -0.963280
     32          1           0        3.736284   -2.232836   -1.073544
     33          1           0        2.905326    2.696488    0.707524
     34          6           0        0.649295    2.222944   -0.634941
     35          6           0        1.089851    2.149091   -1.902047
     36          1           0        0.675169    2.782991   -2.680704
     37          1           0        1.864197    1.462918   -2.219656
     38          6           0       -0.438294    3.208088   -0.281446
     39          1           0       -1.311690    2.687912    0.123525
     40          1           0       -0.772747    3.786567   -1.149240
     41          1           0       -0.075370    3.918291    0.468832
     42          6           0       -4.992589   -0.893495   -0.029700
     43          1           0       -5.218180   -1.670591   -0.770153
     44          1           0       -5.407328   -1.251397    0.920539
     45          6           0       -5.670002    0.408755   -0.428217
     46          1           0       -6.751458    0.262376   -0.512541
     47          1           0       -5.300079    0.769801   -1.393881
     48          1           0       -5.490594    1.193451    0.314598
 ---------------------------------------------------------------------

 SCF Done:  E(RB3LYP) =  -1002.54579194     A.U. after   14 cycles

 The electronic state is 1-A.
 Alpha  occ. eigenvalues --  -19.18828 -19.18772 -19.16254 -19.15721 -10.25614
 Alpha  occ. eigenvalues --  -10.25544 -10.24355 -10.23414 -10.19950 -10.19895
 Alpha  occ. eigenvalues --  -10.19756 -10.19554 -10.19115 -10.18182 -10.18079
 Alpha  occ. eigenvalues --  -10.18009 -10.17841 -10.17554 -10.17213 -10.17125
 Alpha  occ. eigenvalues --  -10.16761 -10.16720  -1.06924  -1.06531  -1.03861
 Alpha  occ. eigenvalues --   -1.01502  -0.85847  -0.83644  -0.79267  -0.78839
 Alpha  occ. eigenvalues --   -0.75236  -0.73390  -0.73261  -0.71214  -0.68321
 Alpha  occ. eigenvalues --   -0.67550  -0.64308  -0.63753  -0.61112  -0.60504
 Alpha  occ. eigenvalues --   -0.57482  -0.55374  -0.54771  -0.52751  -0.51201
 Alpha  occ. eigenvalues --   -0.50520  -0.50114  -0.47899  -0.46894  -0.46299
 Alpha  occ. eigenvalues --   -0.44891  -0.44583  -0.44364  -0.43253  -0.42897
 Alpha  occ. eigenvalues --   -0.42437  -0.41680  -0.41201  -0.40759  -0.39831
 Alpha  occ. eigenvalues --   -0.39311  -0.39011  -0.38291  -0.38037  -0.37889
 Alpha  occ. eigenvalues --   -0.37509  -0.36800  -0.36581  -0.35573  -0.35284
 Alpha  occ. eigenvalues --   -0.34483  -0.34140  -0.33151  -0.33035  -0.32254
 Alpha  occ. eigenvalues --   -0.30869  -0.30503  -0.30144  -0.27895  -0.27544
 Alpha  occ. eigenvalues --   -0.24547  -0.22958  -0.22222
 Alpha virt. eigenvalues --   -0.00601  -0.00152   0.00086   0.00683   0.01394
 Alpha virt. eigenvalues --    0.01735   0.01875   0.02779   0.03063   0.03465
 Alpha virt. eigenvalues --    0.03958   0.04590   0.04871   0.05017   0.05294

 Mulliken atomic charges:
              1
     1  C    0.349652
     2  C   -0.303975
     3  H    0.154640
     4  H    0.156801
     5  C   -0.415872
     6  H    0.159390
     7  C   -0.022557
     8  H    0.145261
     9  C    0.492849
    10  H    0.158286
    11  C   -0.258245
    12  H    0.161768
    13  C    0.527575
    14  C    0.006325
    15  C    0.328175
    16  C   -0.586229
    17  C   -0.894455
    18  C   -0.108558
    19  H    0.149759
    20  H    0.151656
    21  O   -0.598490
    22  H    0.456603
    23  O   -0.604954
    24  H    0.448399
    25  O   -0.654651
    26  H    0.425780
    27  C   -0.323680
    28  H    0.163539
    29  H    0.159889
    30  H    0.167984
    31  O   -0.570868
    32  H    0.395592
    33  H    0.151893
    34  C    0.300557
    35  C   -0.466798
    36  H    0.142461
    37  H    0.146850
    38  C   -0.735810
    39  H    0.173031
    40  H    0.154547
    41  H    0.168990
    42  C   -0.018741
    43  H    0.152402
    44  H    0.152352
    45  C   -0.608356
    46  H    0.152701
    47  H    0.158225
    48  H    0.158306
 Sum of Mulliken atomic charges =   0.00000

 Dipole moment (field-independent basis, Debye):
    X=             -7.9521    Y=              1.5321    Z=              1.1395  Tot=              8.1781
 Quadrupole moment (field-independent basis, Debye-Ang):
   XX=           -136.7237   YY=           -138.7589   ZZ=           -120.1526
   XY=              8.2484   XZ=              5.8585   YZ=              5.5376

 Normal termination of Gaussian 09 at Fri Dec 23 18:24:17 2022.
