 Gaussian 09, Revision C.01,

 ------------------------------------------------
 # mPW1PW91/6-31+G** scrf=(PCM,solvent=water) nmr
 ------------------------------------------------

 99/9=1/99;
 -------
 comment
 -------
 Charge =  0 Multiplicity = 1

 SCF Done:  E(RmPW1PW91) =  -1002.30226678     A.U. after   14 cycles

      1  C    Isotropic =   121.1054   Anisotropy =    44.9341

      2  C    Isotropic =   160.3412   Anisotropy =    27.7508

      3  H    Isotropic =    29.8155   Anisotropy =     9.3266

      4  H    Isotropic =    29.4043   Anisotropy =     6.8414

      5  C    Isotropic =   165.6041   Anisotropy =    22.9806

      6  H    Isotropic =    29.4863   Anisotropy =     8.3115

      7  C    Isotropic =   151.3517   Anisotropy =    18.9132

      8  H    Isotropic =    28.2864   Anisotropy =     5.8132

      9  C    Isotropic =   150.7196   Anisotropy =    23.5994

     10  H    Isotropic =    28.2722   Anisotropy =     6.2268

     11  C    Isotropic =   120.3722   Anisotropy =    35.3183

     12  H    Isotropic =    26.5893   Anisotropy =     2.9615

     13  C    Isotropic =    86.6860   Anisotropy =   123.0771

     14  C    Isotropic =    49.0065   Anisotropy =   191.3406

     15  C    Isotropic =    43.4608   Anisotropy =   125.9443

     16  C    Isotropic =    45.2972   Anisotropy =   118.0642

     17  C    Isotropic =    83.2274   Anisotropy =   112.9693

     18  C    Isotropic =    87.8462   Anisotropy =   103.0188

     19  H    Isotropic =    24.7056   Anisotropy =     7.3878

     20  H    Isotropic =    24.9756   Anisotropy =     7.2174

     21  O    Isotropic =   247.3447   Anisotropy =    61.5944

     22  H    Isotropic =    26.7493   Anisotropy =    17.8771

     23  O    Isotropic =   226.6205   Anisotropy =    52.8168

     24  H    Isotropic =    26.4656   Anisotropy =    15.4313

     25  O    Isotropic =   300.6808   Anisotropy =    42.3049

     26  H    Isotropic =    29.5171   Anisotropy =    18.7786

     27  C    Isotropic =   174.6367   Anisotropy =    32.9583

     28  H    Isotropic =    30.6793   Anisotropy =     9.9420

     29  H    Isotropic =    30.1749   Anisotropy =     7.8903

     30  H    Isotropic =    29.9383   Anisotropy =     7.9037

     31  O    Isotropic =   256.3848   Anisotropy =    76.9265

     32  H    Isotropic =    28.4515   Anisotropy =    14.3295

     33  H    Isotropic =    29.8968   Anisotropy =     9.5616

     34  C    Isotropic =    37.0195   Anisotropy =   187.4765

     35  C    Isotropic =    87.1191   Anisotropy =   113.8208

     36  H    Isotropic =    26.1111   Anisotropy =     5.4379

     37  H    Isotropic =    26.0117   Anisotropy =     6.0366

     38  C    Isotropic =   166.2004   Anisotropy =    43.5296

     39  H    Isotropic =    30.4216   Anisotropy =     6.9050

     40  H    Isotropic =    30.0850   Anisotropy =     8.6460

     41  H    Isotropic =    29.7809   Anisotropy =     8.5305

     42  C    Isotropic =   164.0172   Anisotropy =    28.3955

     43  H    Isotropic =    29.1677   Anisotropy =     7.2082

     44  H    Isotropic =    29.0495   Anisotropy =     7.1511

     45  C    Isotropic =   178.7702   Anisotropy =    30.8431

     46  H    Isotropic =    30.2264   Anisotropy =    12.1410

     47  H    Isotropic =    30.6535   Anisotropy =     7.3949

     48  H    Isotropic =    30.5967   Anisotropy =     7.4799

 Normal termination of Gaussian 09 at Fri Dec 23 14:20:28 2022.
 Gaussian 09:  EM64L-G09RevC.01 23-Sep-2011

 ----------------------------------------------------------------------
 # B3LYP/6-31+G** geom=allcheck test scrf=(pcm,solvent=water,smd,dovacu
 um)
 ----------------------------------------------------------------------

 Structure from the checkpoint file:  02_RSSS_THC_006_optB_NMR.chk
 -------
 comment
 -------
 Charge =  0 Multiplicity = 1

                         Standard orientation:
 ---------------------------------------------------------------------
 Center     Atomic      Atomic             Coordinates (Angstroms)
 Number     Number       Type             X           Y           Z
 ---------------------------------------------------------------------
      1          6           0        3.078357   -1.150839   -0.013537
      2          6           0        3.736355    0.214024    0.212655
      3          1           0        4.725535    0.079834    0.670633
      4          1           0        3.955805    0.681848   -0.752218
      5          6           0        2.905294    1.155546    1.083415
      6          1           0        2.957118    0.791694    2.118422
      7          6           0        1.411289    1.276763    0.698607
      8          1           0        0.938119    1.689590    1.602901
      9          6           0        0.771549   -0.128008    0.470934
     10          1           0        0.859627   -0.667696    1.424081
     11          6           0        1.614690   -0.983985   -0.505606
     12          1           0        1.652618   -0.539692   -1.504413
     13          6           0       -0.741478   -0.057854    0.235030
     14          6           0       -3.578143   -0.019505   -0.054880
     15          6           0       -1.601962    0.035827    1.346301
     16          6           0       -1.355314   -0.097370   -1.022320
     17          6           0       -2.743912   -0.100870   -1.172137
     18          6           0       -2.994364    0.052576    1.212415
     19          1           0       -3.169424   -0.157246   -2.171819
     20          1           0       -3.632482    0.116650    2.089490
     21          8           0       -0.639168   -0.133845   -2.182452
     22          1           0       -0.050663    0.642715   -2.155923
     23          8           0       -1.056411    0.114181    2.601223
     24          1           0       -1.772487    0.105703    3.257553
     25          8           0        1.059725   -2.298106   -0.682988
     26          1           0        0.193345   -2.172033   -1.116679
     27          6           0        3.212823   -2.040068    1.232298
     28          1           0        4.270267   -2.196577    1.477157
     29          1           0        2.796616   -3.038149    1.056410
     30          1           0        2.724962   -1.614154    2.112774
     31          8           0        3.811087   -1.817606   -1.057773
     32          1           0        3.262716   -2.593192   -1.293287
     33          1           0        3.376090    2.146697    1.096695
     34          6           0        1.143190    2.317204   -0.398964
     35          6           0        1.762954    2.382725   -1.589713
     36          1           0        1.534020    3.173209   -2.300966
     37          1           0        2.518089    1.676044   -1.909239
     38          6           0        0.114758    3.365956   -0.041411
     39          1           0       -0.852770    2.904296    0.174919
     40          1           0       -0.040124    4.087321   -0.850939
     41          1           0        0.438734    3.926343    0.841829
     42          6           0       -5.076100   -0.033229   -0.214618
     43          1           0       -5.537286    0.568085    0.578336
     44          1           0       -5.351365    0.450156   -1.159945
     45          6           0       -5.635270   -1.447246   -0.178566
     46          1           0       -6.723272   -1.427036   -0.296638
     47          1           0       -5.406186   -1.941015    0.771910
     48          1           0       -5.217759   -2.060264   -0.984538
 ---------------------------------------------------------------------

 SCF Done:  E(RB3LYP) =  -1002.54410233     A.U. after   14 cycles

 The electronic state is 1-A.
 Alpha  occ. eigenvalues --  -19.18873 -19.18089 -19.16428 -19.15783 -10.25636
 Alpha  occ. eigenvalues --  -10.24998 -10.24511 -10.23698 -10.20121 -10.20054
 Alpha  occ. eigenvalues --  -10.19869 -10.19800 -10.19411 -10.18323 -10.18162
 Alpha  occ. eigenvalues --  -10.17950 -10.17882 -10.17650 -10.17336 -10.17232
 Alpha  occ. eigenvalues --  -10.17120 -10.16835  -1.06708  -1.06479  -1.03972
 Alpha  occ. eigenvalues --   -1.01618  -0.85869  -0.83866  -0.79256  -0.79065
 Alpha  occ. eigenvalues --   -0.75395  -0.73558  -0.73421  -0.71253  -0.68451
 Alpha  occ. eigenvalues --   -0.67774  -0.64544  -0.62470  -0.61251  -0.60576
 Alpha  occ. eigenvalues --   -0.58973  -0.55080  -0.54169  -0.52377  -0.51302
 Alpha  occ. eigenvalues --   -0.50394  -0.49781  -0.49155  -0.47683  -0.46485
 Alpha  occ. eigenvalues --   -0.45134  -0.44711  -0.44191  -0.43398  -0.42957
 Alpha  occ. eigenvalues --   -0.42293  -0.41988  -0.41498  -0.40674  -0.40452
 Alpha  occ. eigenvalues --   -0.39644  -0.38878  -0.38523  -0.37984  -0.37711
 Alpha  occ. eigenvalues --   -0.37153  -0.36599  -0.36075  -0.35560  -0.34835
 Alpha  occ. eigenvalues --   -0.34391  -0.34082  -0.33147  -0.32982  -0.32286
 Alpha  occ. eigenvalues --   -0.31255  -0.30523  -0.30154  -0.28018  -0.27635
 Alpha  occ. eigenvalues --   -0.25247  -0.23416  -0.22453
 Alpha virt. eigenvalues --   -0.00935  -0.00492   0.00027   0.00526   0.01436
 Alpha virt. eigenvalues --    0.01654   0.01837   0.02810   0.03337   0.03482
 Alpha virt. eigenvalues --    0.04189   0.04483   0.04792   0.04961   0.05479

 Mulliken atomic charges:
              1
     1  C    0.181523
     2  C   -0.309270
     3  H    0.156096
     4  H    0.155763
     5  C   -0.433218
     6  H    0.161431
     7  C   -0.012204
     8  H    0.147764
     9  C    0.156534
    10  H    0.158961
    11  C   -0.089930
    12  H    0.159496
    13  C    0.327836
    14  C    0.177101
    15  C    0.297393
    16  C   -0.129619
    17  C   -0.908255
    18  C   -0.225536
    19  H    0.150964
    20  H    0.153060
    21  O   -0.537453
    22  H    0.419164
    23  O   -0.606487
    24  H    0.447727
    25  O   -0.624942
    26  H    0.418160
    27  C   -0.330370
    28  H    0.164681
    29  H    0.160421
    30  H    0.168523
    31  O   -0.572798
    32  H    0.395827
    33  H    0.153355
    34  C    0.360366
    35  C   -0.484373
    36  H    0.148419
    37  H    0.151856
    38  C   -0.710726
    39  H    0.176395
    40  H    0.155337
    41  H    0.170846
    42  C   -0.078753
    43  H    0.151606
    44  H    0.152316
    45  C   -0.593158
    46  H    0.152552
    47  H    0.157873
    48  H    0.157744
 Sum of Mulliken atomic charges =   0.00000

 Dipole moment (field-independent basis, Debye):
    X=             -4.9951    Y=              3.6322    Z=              3.5167  Tot=              7.1071
 Quadrupole moment (field-independent basis, Debye-Ang):
   XX=           -134.7254   YY=           -138.7754   ZZ=           -128.9082
   XY=              6.6464   XZ=             -0.8702   YZ=             -2.2432

 Normal termination of Gaussian 09 at Fri Dec 23 14:35:33 2022.
