 Gaussian 09, Revision C.01,

 ------------------------------------------------
 # mPW1PW91/6-31+G** scrf=(PCM,solvent=water) nmr
 ------------------------------------------------

 99/9=1/99;
 -------
 comment
 -------
 Charge =  0 Multiplicity = 1

 SCF Done:  E(RmPW1PW91) =  -1002.30222530     A.U. after   14 cycles

      1  C    Isotropic =   120.9327   Anisotropy =    45.5531

      2  C    Isotropic =   160.3348   Anisotropy =    27.3205

      3  H    Isotropic =    29.8406   Anisotropy =     9.4035

      4  H    Isotropic =    29.4255   Anisotropy =     6.7107

      5  C    Isotropic =   165.4350   Anisotropy =    23.3265

      6  H    Isotropic =    29.4713   Anisotropy =     8.2567

      7  C    Isotropic =   152.2089   Anisotropy =    17.8109

      8  H    Isotropic =    28.3859   Anisotropy =     5.8932

      9  C    Isotropic =   150.3393   Anisotropy =    23.0870

     10  H    Isotropic =    28.3142   Anisotropy =     6.3522

     11  C    Isotropic =   120.8584   Anisotropy =    36.0583

     12  H    Isotropic =    26.5851   Anisotropy =     2.9035

     13  C    Isotropic =    87.1417   Anisotropy =   123.0524

     14  C    Isotropic =    49.5970   Anisotropy =   192.5257

     15  C    Isotropic =    43.1470   Anisotropy =   125.5856

     16  C    Isotropic =    44.9950   Anisotropy =   118.1960

     17  C    Isotropic =    83.7179   Anisotropy =   114.2558

     18  C    Isotropic =    87.9928   Anisotropy =   103.9193

     19  H    Isotropic =    24.6632   Anisotropy =     7.4985

     20  H    Isotropic =    24.9355   Anisotropy =     7.2538

     21  O    Isotropic =   247.6378   Anisotropy =    61.0537

     22  H    Isotropic =    26.5444   Anisotropy =    18.0047

     23  O    Isotropic =   226.5019   Anisotropy =    53.8498

     24  H    Isotropic =    26.3977   Anisotropy =    15.6185

     25  O    Isotropic =   301.8970   Anisotropy =    42.6569

     26  H    Isotropic =    29.6132   Anisotropy =    18.6541

     27  C    Isotropic =   174.6433   Anisotropy =    32.3638

     28  H    Isotropic =    30.6913   Anisotropy =     9.9809

     29  H    Isotropic =    30.1853   Anisotropy =     7.9295

     30  H    Isotropic =    29.9453   Anisotropy =     7.9616

     31  O    Isotropic =   258.1677   Anisotropy =    79.8481

     32  H    Isotropic =    28.4913   Anisotropy =    14.4341

     33  H    Isotropic =    29.8871   Anisotropy =     9.5053

     34  C    Isotropic =    36.4153   Anisotropy =   189.0338

     35  C    Isotropic =    87.3266   Anisotropy =   114.9538

     36  H    Isotropic =    26.1637   Anisotropy =     5.4054

     37  H    Isotropic =    25.9961   Anisotropy =     6.0196

     38  C    Isotropic =   166.0524   Anisotropy =    43.3031

     39  H    Isotropic =    30.4520   Anisotropy =     6.8039

     40  H    Isotropic =    30.0174   Anisotropy =     8.5539

     41  H    Isotropic =    29.7687   Anisotropy =     8.5500

     42  C    Isotropic =   163.8093   Anisotropy =    29.7242

     43  H    Isotropic =    29.1614   Anisotropy =     7.4268

     44  H    Isotropic =    29.2213   Anisotropy =     7.6687

     45  C    Isotropic =   177.2562   Anisotropy =    28.8211

     46  H    Isotropic =    30.2288   Anisotropy =    12.0555

     47  H    Isotropic =    30.5965   Anisotropy =     7.1126

     48  H    Isotropic =    30.5757   Anisotropy =     7.3378

 Normal termination of Gaussian 09 at Fri Dec 23 14:21:23 2022.
 Gaussian 09:  EM64L-G09RevC.01 23-Sep-2011

 ----------------------------------------------------------------------
 # B3LYP/6-31+G** geom=allcheck test scrf=(pcm,solvent=water,smd,dovacu
 um)
 ----------------------------------------------------------------------

 Structure from the checkpoint file:  02_RSSS_THC_005_optB_NMR.chk
 -------
 comment
 -------
 Charge =  0 Multiplicity = 1

                         Standard orientation:
 ---------------------------------------------------------------------
 Center     Atomic      Atomic             Coordinates (Angstroms)
 Number     Number       Type             X           Y           Z
 ---------------------------------------------------------------------
      1          6           0        3.240130   -0.820698   -0.074506
      2          6           0        3.684353    0.616015    0.217771
      3          1           0        4.686745    0.612428    0.666580
      4          1           0        3.820717    1.158249   -0.723166
      5          6           0        2.727760    1.375964    1.135785
      6          1           0        2.844494    0.974421    2.151390
      7          6           0        1.229058    1.285947    0.760700
      8          1           0        0.707421    1.577033    1.685466
      9          6           0        0.809036   -0.187418    0.464862
     10          1           0        0.987368   -0.753116    1.389929
     11          6           0        1.763503   -0.855721   -0.554732
     12          1           0        1.723554   -0.362608   -1.530298
     13          6           0       -0.699031   -0.338415    0.235566
     14          6           0       -3.509605   -0.728887   -0.046414
     15          6           0       -1.553472   -0.428900    1.351726
     16          6           0       -1.311652   -0.409073   -1.021010
     17          6           0       -2.684818   -0.617462   -1.168087
     18          6           0       -2.933369   -0.618169    1.221537
     19          1           0       -3.107790   -0.679391   -2.168525
     20          1           0       -3.567151   -0.682952    2.101698
     21          8           0       -0.610188   -0.274821   -2.182925
     22          1           0       -0.145201    0.579167   -2.115834
     23          8           0       -1.015104   -0.323721    2.607778
     24          1           0       -1.714648   -0.475731    3.264405
     25          8           0        1.413961   -2.229020   -0.796043
     26          1           0        0.534292   -2.216094   -1.220992
     27          6           0        3.520597   -1.738537    1.125423
     28          1           0        4.591838   -1.743340    1.360071
     29          1           0        3.259843   -2.778738    0.901102
     30          1           0        2.981939   -1.435568    2.026925
     31          8           0        4.055970   -1.315979   -1.151999
     32          1           0        3.630061   -2.153821   -1.424647
     33          1           0        3.041925    2.425601    1.197167
     34          6           0        0.794365    2.325535   -0.283060
     35          6           0        1.386490    2.544771   -1.469487
     36          1           0        1.032461    3.324667   -2.139997
     37          1           0        2.238652    1.979683   -1.824741
     38          6           0       -0.380278    3.184134    0.127473
     39          1           0       -1.263488    2.568806    0.320696
     40          1           0       -0.650983    3.912405   -0.644561
     41          1           0       -0.139124    3.743128    1.037679
     42          6           0       -4.994854   -0.925470   -0.204288
     43          1           0       -5.195506   -1.513412   -1.108244
     44          1           0       -5.379579   -1.518573    0.634318
     45          6           0       -5.735909    0.400765   -0.278673
     46          1           0       -6.810669    0.227782   -0.392956
     47          1           0       -5.395868    0.998687   -1.131061
     48          1           0       -5.582240    0.993323    0.629598
 ---------------------------------------------------------------------

 SCF Done:  E(RB3LYP) =  -1002.54408924     A.U. after   14 cycles

 The electronic state is 1-A.
 Alpha  occ. eigenvalues --  -19.18862 -19.18075 -19.16434 -19.15781 -10.25631
 Alpha  occ. eigenvalues --  -10.24995 -10.24507 -10.23695 -10.20121 -10.20055
 Alpha  occ. eigenvalues --  -10.19865 -10.19797 -10.19413 -10.18321 -10.18164
 Alpha  occ. eigenvalues --  -10.17949 -10.17877 -10.17645 -10.17333 -10.17233
 Alpha  occ. eigenvalues --  -10.17118 -10.16834  -1.06696  -1.06467  -1.03975
 Alpha  occ. eigenvalues --   -1.01620  -0.85867  -0.83864  -0.79257  -0.79063
 Alpha  occ. eigenvalues --   -0.75393  -0.73557  -0.73417  -0.71248  -0.68449
 Alpha  occ. eigenvalues --   -0.67774  -0.64542  -0.62464  -0.61251  -0.60575
 Alpha  occ. eigenvalues --   -0.58981  -0.55077  -0.54153  -0.52373  -0.51298
 Alpha  occ. eigenvalues --   -0.50395  -0.49761  -0.49157  -0.47692  -0.46484
 Alpha  occ. eigenvalues --   -0.45149  -0.44581  -0.44367  -0.43293  -0.43095
 Alpha  occ. eigenvalues --   -0.42364  -0.41887  -0.41368  -0.40810  -0.40455
 Alpha  occ. eigenvalues --   -0.39605  -0.38738  -0.38430  -0.37986  -0.37698
 Alpha  occ. eigenvalues --   -0.37245  -0.36655  -0.36045  -0.35553  -0.34806
 Alpha  occ. eigenvalues --   -0.34374  -0.34035  -0.33263  -0.33163  -0.32294
 Alpha  occ. eigenvalues --   -0.31217  -0.30482  -0.30069  -0.28016  -0.27637
 Alpha  occ. eigenvalues --   -0.25251  -0.23419  -0.22442
 Alpha virt. eigenvalues --   -0.00980  -0.00448   0.00114   0.00515   0.01431
 Alpha virt. eigenvalues --    0.01659   0.01790   0.02712   0.03151   0.03461
 Alpha virt. eigenvalues --    0.04268   0.04583   0.04854   0.05002   0.05465

 Mulliken atomic charges:
              1
     1  C    0.191236
     2  C   -0.310011
     3  H    0.155983
     4  H    0.155647
     5  C   -0.437693
     6  H    0.161397
     7  C   -0.012604
     8  H    0.147785
     9  C    0.168187
    10  H    0.159018
    11  C   -0.103392
    12  H    0.159578
    13  C    0.304810
    14  C    0.128964
    15  C    0.319339
    16  C   -0.146620
    17  C   -0.891081
    18  C   -0.261625
    19  H    0.151057
    20  H    0.153303
    21  O   -0.535701
    22  H    0.418410
    23  O   -0.606634
    24  H    0.448005
    25  O   -0.624966
    26  H    0.417579
    27  C   -0.331710
    28  H    0.164740
    29  H    0.160365
    30  H    0.168506
    31  O   -0.573442
    32  H    0.395992
    33  H    0.153450
    34  C    0.362750
    35  C   -0.488689
    36  H    0.148505
    37  H    0.151762
    38  C   -0.709192
    39  H    0.176027
    40  H    0.155290
    41  H    0.170774
    42  C    0.016119
    43  H    0.152807
    44  H    0.152245
    45  C   -0.605082
    46  H    0.152483
    47  H    0.158243
    48  H    0.158084
 Sum of Mulliken atomic charges =   0.00000

 Dipole moment (field-independent basis, Debye):
    X=             -5.4688    Y=              2.7670    Z=              3.7097  Tot=              7.1642
 Quadrupole moment (field-independent basis, Debye-Ang):
   XX=           -137.0214   YY=           -137.3505   ZZ=           -129.1584
   XY=              7.6975   XZ=             -0.0563   YZ=             -3.3377

 Normal termination of Gaussian 09 at Fri Dec 23 14:36:58 2022.
