 Gaussian 09, Revision C.01,

 ------------------------------------------------
 # mPW1PW91/6-31+G** scrf=(PCM,solvent=water) nmr
 ------------------------------------------------

 99/9=1/99;
 -------
 comment
 -------
 Charge =  0 Multiplicity = 1

 SCF Done:  E(RmPW1PW91) =  -1002.30613847     A.U. after   14 cycles

      1  C    Isotropic =   120.4511   Anisotropy =    46.9227

      2  C    Isotropic =   161.5877   Anisotropy =    27.1046

      3  H    Isotropic =    30.2164   Anisotropy =     8.6946

      4  H    Isotropic =    29.1227   Anisotropy =     5.5508

      5  C    Isotropic =   166.3626   Anisotropy =    18.8580

      6  H    Isotropic =    29.5851   Anisotropy =     8.5866

      7  C    Isotropic =   152.5931   Anisotropy =    18.6294

      8  H    Isotropic =    28.5764   Anisotropy =     6.1956

      9  C    Isotropic =   154.7388   Anisotropy =    23.6428

     10  H    Isotropic =    27.8455   Anisotropy =     8.5217

     11  C    Isotropic =   120.3146   Anisotropy =    38.1174

     12  H    Isotropic =    27.5047   Anisotropy =     4.8414

     13  C    Isotropic =    89.3294   Anisotropy =   113.3418

     14  C    Isotropic =    50.2985   Anisotropy =   189.4495

     15  C    Isotropic =    43.9958   Anisotropy =   124.8014

     16  C    Isotropic =    40.3908   Anisotropy =   134.3972

     17  C    Isotropic =    88.9646   Anisotropy =   107.0051

     18  C    Isotropic =    93.6409   Anisotropy =    94.4314

     19  H    Isotropic =    24.9357   Anisotropy =     7.9617

     20  H    Isotropic =    25.2161   Anisotropy =     6.9721

     21  O    Isotropic =   211.1678   Anisotropy =    72.9211

     22  H    Isotropic =    21.0090   Anisotropy =    30.9691

     23  O    Isotropic =   227.0684   Anisotropy =    51.0312

     24  H    Isotropic =    26.5408   Anisotropy =    15.4636

     25  O    Isotropic =   285.3719   Anisotropy =    40.7993

     26  H    Isotropic =    26.6698   Anisotropy =    18.4570

     27  C    Isotropic =   170.6206   Anisotropy =    40.6284

     28  H    Isotropic =    30.6135   Anisotropy =    10.2882

     29  H    Isotropic =    30.3258   Anisotropy =     9.0782

     30  H    Isotropic =    29.7920   Anisotropy =     7.4886

     31  O    Isotropic =   249.4906   Anisotropy =    57.7033

     32  H    Isotropic =    29.8790   Anisotropy =    17.0578

     33  H    Isotropic =    29.7220   Anisotropy =     9.1887

     34  C    Isotropic =    44.3431   Anisotropy =   178.3618

     35  C    Isotropic =    83.1281   Anisotropy =   101.3315

     36  H    Isotropic =    26.6317   Anisotropy =     5.7149

     37  H    Isotropic =    27.3713   Anisotropy =     7.8606

     38  C    Isotropic =   173.6772   Anisotropy =    29.3108

     39  H    Isotropic =    29.6119   Anisotropy =     7.4678

     40  H    Isotropic =    29.8501   Anisotropy =     8.8078

     41  H    Isotropic =    28.7643   Anisotropy =     5.6887

     42  C    Isotropic =   164.8698   Anisotropy =    28.6802

     43  H    Isotropic =    29.2027   Anisotropy =     7.6299

     44  H    Isotropic =    29.2840   Anisotropy =     7.4626

     45  C    Isotropic =   177.6043   Anisotropy =    30.2972

     46  H    Isotropic =    30.3149   Anisotropy =    11.9382

     47  H    Isotropic =    30.5871   Anisotropy =     7.2316

     48  H    Isotropic =    30.5979   Anisotropy =     7.3621

 Normal termination of Gaussian 09 at Fri Dec 23 15:03:06 2022.
 Gaussian 09:  EM64L-G09RevC.01 23-Sep-2011

 ----------------------------------------------------------------------
 # B3LYP/6-31+G** geom=allcheck test scrf=(pcm,solvent=water,smd,dovacu
 um)
 ----------------------------------------------------------------------

 Structure from the checkpoint file:  03_RSRS_THC_005_optB_NMR.chk
 -------
 comment
 -------
 Charge =  0 Multiplicity = 1

                         Standard orientation:
 ---------------------------------------------------------------------
 Center     Atomic      Atomic             Coordinates (Angstroms)
 Number     Number       Type             X           Y           Z
 ---------------------------------------------------------------------
      1          6           0       -3.162627   -0.944163    0.396749
      2          6           0       -3.611233    0.221150   -0.499595
      3          1           0       -4.618572    0.021643   -0.888244
      4          1           0       -3.727767    1.125195    0.108615
      5          6           0       -2.666340    0.492039   -1.671373
      6          1           0       -2.743931   -0.348954   -2.373252
      7          6           0       -1.177731    0.655619   -1.280373
      8          1           0       -0.639802    0.455815   -2.222298
      9          6           0       -0.735773   -0.487812   -0.310332
     10          1           0       -0.882824   -1.401371   -0.902323
     11          6           0       -1.699578   -0.741018    0.871155
     12          1           0       -1.370787   -1.617371    1.443799
     13          6           0        0.764530   -0.496433    0.000116
     14          6           0        3.593351   -0.580166    0.404521
     15          6           0        1.628553   -1.202223   -0.866081
     16          6           0        1.376874    0.187914    1.060735
     17          6           0        2.762449    0.145791    1.260056
     18          6           0        3.013913   -1.251270   -0.672047
     19          1           0        3.186207    0.699750    2.095422
     20          1           0        3.649717   -1.804618   -1.357100
     21          8           0        0.716759    0.967189    1.967036
     22          1           0       -0.249717    0.888906    1.820370
     23          8           0        1.098152   -1.859716   -1.948380
     24          1           0        1.823145   -2.263096   -2.453371
     25          8           0       -1.706724    0.351112    1.803706
     26          1           0       -2.511893    0.191988    2.345962
     27          6           0       -3.374166   -2.302837   -0.278752
     28          1           0       -4.434793   -2.459773   -0.507299
     29          1           0       -3.083727   -3.116457    0.395720
     30          1           0       -2.811264   -2.411331   -1.209156
     31          8           0       -3.986570   -0.923792    1.582495
     32          1           0       -4.911655   -1.041808    1.300277
     33          1           0       -3.016660    1.368388   -2.230488
     34          6           0       -0.783141    2.091820   -0.917625
     35          6           0        0.375206    2.605965   -1.373490
     36          1           0        0.680743    3.622262   -1.144366
     37          1           0        1.066627    2.015498   -1.967630
     38          6           0       -1.701068    2.965656   -0.108685
     39          1           0       -2.649185    3.122873   -0.631028
     40          1           0       -1.270051    3.958544    0.064663
     41          1           0       -1.903543    2.540107    0.873666
     42          6           0        5.083530   -0.600584    0.619382
     43          1           0        5.303039   -0.538860    1.692274
     44          1           0        5.491719   -1.561002    0.281676
     45          6           0        5.776385    0.538205   -0.113294
     46          1           0        6.856364    0.498233    0.060324
     47          1           0        5.413001    1.512143    0.231822
     48          1           0        5.603874    0.479052   -1.193314
 ---------------------------------------------------------------------

 SCF Done:  E(RB3LYP) =  -1002.54538434     A.U. after   14 cycles

 The electronic state is 1-A.
 Alpha  occ. eigenvalues --  -19.18744 -19.16941 -19.16601 -19.16561 -10.25466
 Alpha  occ. eigenvalues --  -10.24948 -10.24869 -10.24500 -10.20336 -10.19570
 Alpha  occ. eigenvalues --  -10.19517 -10.19500 -10.19254 -10.18062 -10.17765
 Alpha  occ. eigenvalues --  -10.17754 -10.17428 -10.17321 -10.17263 -10.17069
 Alpha  occ. eigenvalues --  -10.16766 -10.16741  -1.06446  -1.06087  -1.04449
 Alpha  occ. eigenvalues --   -1.02035  -0.85591  -0.83620  -0.79217  -0.78914
 Alpha  occ. eigenvalues --   -0.75436  -0.73998  -0.73120  -0.71076  -0.68454
 Alpha  occ. eigenvalues --   -0.67222  -0.64596  -0.62077  -0.61164  -0.60898
 Alpha  occ. eigenvalues --   -0.59081  -0.57086  -0.53939  -0.52026  -0.51008
 Alpha  occ. eigenvalues --   -0.50185  -0.49088  -0.48643  -0.48300  -0.46338
 Alpha  occ. eigenvalues --   -0.45610  -0.43995  -0.43665  -0.43095  -0.42827
 Alpha  occ. eigenvalues --   -0.42127  -0.41869  -0.41191  -0.40643  -0.39895
 Alpha  occ. eigenvalues --   -0.39649  -0.38878  -0.38685  -0.38400  -0.37533
 Alpha  occ. eigenvalues --   -0.37324  -0.37153  -0.36279  -0.36063  -0.35470
 Alpha  occ. eigenvalues --   -0.34030  -0.33601  -0.33227  -0.33062  -0.32294
 Alpha  occ. eigenvalues --   -0.30732  -0.30572  -0.30364  -0.29143  -0.27635
 Alpha  occ. eigenvalues --   -0.24348  -0.22832  -0.21566
 Alpha virt. eigenvalues --   -0.00409  -0.00119   0.00263   0.00810   0.01386
 Alpha virt. eigenvalues --    0.01852   0.02354   0.02750   0.03102   0.03341
 Alpha virt. eigenvalues --    0.04277   0.04411   0.04669   0.04867   0.05362

 Mulliken atomic charges:
              1
     1  C    0.142656
     2  C   -0.341050
     3  H    0.154126
     4  H    0.165687
     5  C   -0.450095
     6  H    0.160796
     7  C   -0.020502
     8  H    0.152271
     9  C    0.360965
    10  H    0.168236
    11  C   -0.290086
    12  H    0.146192
    13  C    0.717276
    14  C   -0.042596
    15  C    0.490142
    16  C   -0.743301
    17  C   -0.773056
    18  C   -0.139137
    19  H    0.145361
    20  H    0.147548
    21  O   -0.643307
    22  H    0.505391
    23  O   -0.598796
    24  H    0.447547
    25  O   -0.741100
    26  H    0.457011
    27  C   -0.318011
    28  H    0.166487
    29  H    0.160618
    30  H    0.174751
    31  O   -0.630918
    32  H    0.420034
    33  H    0.154597
    34  C    0.522436
    35  C   -0.539038
    36  H    0.145053
    37  H    0.141110
    38  C   -0.638889
    39  H    0.168403
    40  H    0.150265
    41  H    0.180778
    42  C    0.000856
    43  H    0.151305
    44  H    0.150775
    45  C   -0.607327
    46  H    0.152057
    47  H    0.158495
    48  H    0.157985
 Sum of Mulliken atomic charges =   0.00000

 Dipole moment (field-independent basis, Debye):
    X=             -3.7793    Y=             -3.7858    Z=             -4.1443  Tot=              6.7669
 Quadrupole moment (field-independent basis, Debye-Ang):
   XX=           -100.9014   YY=           -134.3712   ZZ=           -139.3844
   XY=             -3.1901   XZ=             -4.7225   YZ=              4.9521

 Normal termination of Gaussian 09 at Fri Dec 23 15:33:00 2022.
