 Gaussian 09, Revision C.01,

 ------------------------------------------------
 # mPW1PW91/6-31+G** scrf=(PCM,solvent=water) nmr
 ------------------------------------------------

 99/9=1/99;
 -------
 comment
 -------
 Charge =  0 Multiplicity = 1

 SCF Done:  E(RmPW1PW91) =  -1002.30667784     A.U. after   14 cycles

      1  C    Isotropic =   125.0988   Anisotropy =    45.2939

      2  C    Isotropic =   158.0056   Anisotropy =    26.8141

      3  H    Isotropic =    29.7742   Anisotropy =     8.6353

      4  H    Isotropic =    29.5726   Anisotropy =     9.1145

      5  C    Isotropic =   171.8299   Anisotropy =    18.0770

      6  H    Isotropic =    30.1731   Anisotropy =    10.4309

      7  C    Isotropic =   149.0051   Anisotropy =    20.5784

      8  H    Isotropic =    28.9779   Anisotropy =     7.3342

      9  C    Isotropic =   156.7508   Anisotropy =    27.3057

     10  H    Isotropic =    27.3295   Anisotropy =     5.3865

     11  C    Isotropic =   117.9300   Anisotropy =    36.7796

     12  H    Isotropic =    27.5328   Anisotropy =     4.3487

     13  C    Isotropic =    89.3958   Anisotropy =   121.7423

     14  C    Isotropic =    49.8724   Anisotropy =   188.8125

     15  C    Isotropic =    40.8889   Anisotropy =   129.0205

     16  C    Isotropic =    45.0407   Anisotropy =   121.0388

     17  C    Isotropic =    88.6826   Anisotropy =   101.8947

     18  C    Isotropic =    86.4963   Anisotropy =   115.0540

     19  H    Isotropic =    25.0776   Anisotropy =     8.2859

     20  H    Isotropic =    24.6320   Anisotropy =     7.2322

     21  O    Isotropic =   221.7292   Anisotropy =    35.0687

     22  H    Isotropic =    26.1300   Anisotropy =    15.5995

     23  O    Isotropic =   228.4574   Anisotropy =    85.2681

     24  H    Isotropic =    24.0471   Anisotropy =    21.9257

     25  O    Isotropic =   295.5984   Anisotropy =    31.8650

     26  H    Isotropic =    28.6988   Anisotropy =    11.2012

     27  C    Isotropic =   169.8939   Anisotropy =    42.8350

     28  H    Isotropic =    30.5539   Anisotropy =     9.7360

     29  H    Isotropic =    30.0998   Anisotropy =     8.6126

     30  H    Isotropic =    30.6998   Anisotropy =    10.6693

     31  O    Isotropic =   296.7334   Anisotropy =    60.8423

     32  H    Isotropic =    27.4285   Anisotropy =    25.5159

     33  H    Isotropic =    28.8109   Anisotropy =     6.1121

     34  C    Isotropic =    46.9699   Anisotropy =   173.2159

     35  C    Isotropic =    87.0119   Anisotropy =   120.4108

     36  H    Isotropic =    26.4186   Anisotropy =     5.8951

     37  H    Isotropic =    26.4737   Anisotropy =     8.3608

     38  C    Isotropic =   171.8261   Anisotropy =    38.1833

     39  H    Isotropic =    29.9759   Anisotropy =     5.6623

     40  H    Isotropic =    29.9048   Anisotropy =     8.9520

     41  H    Isotropic =    30.0690   Anisotropy =     8.7527

     42  C    Isotropic =   164.8030   Anisotropy =    28.2751

     43  H    Isotropic =    29.1436   Anisotropy =     7.6945

     44  H    Isotropic =    29.1834   Anisotropy =     7.1901

     45  C    Isotropic =   177.4845   Anisotropy =    29.1710

     46  H    Isotropic =    30.2205   Anisotropy =    12.1602

     47  H    Isotropic =    30.5164   Anisotropy =     7.4888

     48  H    Isotropic =    30.5686   Anisotropy =     7.1965

 Normal termination of Gaussian 09 at Fri Dec 23 15:02:26 2022.
 Gaussian 09:  EM64L-G09RevC.01 23-Sep-2011

 ----------------------------------------------------------------------
 # B3LYP/6-31+G** geom=allcheck test scrf=(pcm,solvent=water,smd,dovacu
 um)
 ----------------------------------------------------------------------

 Structure from the checkpoint file:  03_RSRS_THC_009_optB_NMR.chk
 -------
 comment
 -------
 Charge =  0 Multiplicity = 1

                         Standard orientation:
 ---------------------------------------------------------------------
 Center     Atomic      Atomic             Coordinates (Angstroms)
 Number     Number       Type             X           Y           Z
 ---------------------------------------------------------------------
      1          6           0        2.426947   -1.559354   -0.415099
      2          6           0        3.385887   -0.443249   -0.844978
      3          1           0        4.217481   -0.378634   -0.131086
      4          1           0        3.822489   -0.680581   -1.823390
      5          6           0        2.727956    0.931815   -0.941482
      6          1           0        3.523640    1.674265   -1.093499
      7          6           0        1.912914    1.323178    0.313832
      8          1           0        2.696340    1.425206    1.084686
      9          6           0        0.978502    0.188861    0.864248
     10          1           0        0.884957    0.463682    1.927829
     11          6           0        1.717612   -1.174293    0.901064
     12          1           0        2.487560   -1.098758    1.681209
     13          6           0       -0.487151    0.094983    0.413293
     14          6           0       -3.281103    0.101630   -0.188695
     15          6           0       -1.467387   -0.265840    1.361770
     16          6           0       -0.959848    0.358056   -0.874000
     17          6           0       -2.329797    0.374383   -1.176005
     18          6           0       -2.834229   -0.239199    1.086694
     19          1           0       -2.666484    0.580838   -2.188788
     20          1           0       -3.538968   -0.511672    1.868398
     21          8           0       -0.077129    0.536254   -1.898539
     22          1           0       -0.554367    0.944374   -2.642507
     23          8           0       -1.117679   -0.727171    2.605221
     24          1           0       -0.366319   -1.343860    2.458270
     25          8           0        0.828325   -2.214937    1.338004
     26          1           0        0.435188   -2.573426    0.512872
     27          6           0        3.209683   -2.868792   -0.247574
     28          1           0        3.718176   -3.137627   -1.180945
     29          1           0        2.542573   -3.705783   -0.012905
     30          1           0        3.961999   -2.791902    0.544214
     31          8           0        1.459106   -1.819085   -1.436010
     32          1           0        1.007755   -0.979914   -1.660412
     33          1           0        2.132818    0.968683   -1.854480
     34          6           0        1.263958    2.713798    0.270793
     35          6           0        1.155290    3.475495   -0.832232
     36          1           0        0.696903    4.459854   -0.794918
     37          1           0        1.507825    3.152484   -1.804735
     38          6           0        0.765360    3.248294    1.592484
     39          1           0       -0.090076    2.669168    1.951441
     40          1           0        0.445071    4.293398    1.519873
     41          1           0        1.559811    3.203166    2.344546
     42          6           0       -4.752431    0.107501   -0.509814
     43          1           0       -5.322566    0.406892    0.378121
     44          1           0       -4.959381    0.867551   -1.273073
     45          6           0       -5.232836   -1.251896   -0.994551
     46          1           0       -6.303469   -1.216642   -1.219502
     47          1           0       -5.070879   -2.024518   -0.235272
     48          1           0       -4.705036   -1.558959   -1.903845
 ---------------------------------------------------------------------

 SCF Done:  E(RB3LYP) =  -1002.54478425     A.U. after   14 cycles

 The electronic state is 1-A.
 Alpha  occ. eigenvalues --  -19.19134 -19.17317 -19.17239 -19.15788 -10.25426
 Alpha  occ. eigenvalues --  -10.24918 -10.24381 -10.23970 -10.20068 -10.19907
 Alpha  occ. eigenvalues --  -10.19764 -10.19651 -10.19622 -10.18131 -10.18108
 Alpha  occ. eigenvalues --  -10.17771 -10.17566 -10.17236 -10.17101 -10.17028
 Alpha  occ. eigenvalues --  -10.17024 -10.16959  -1.07384  -1.05728  -1.04275
 Alpha  occ. eigenvalues --   -1.01995  -0.85682  -0.83423  -0.79146  -0.79111
 Alpha  occ. eigenvalues --   -0.75574  -0.74131  -0.73260  -0.71395  -0.67938
 Alpha  occ. eigenvalues --   -0.67498  -0.64425  -0.62718  -0.60704  -0.60175
 Alpha  occ. eigenvalues --   -0.58435  -0.56664  -0.54667  -0.53331  -0.51273
 Alpha  occ. eigenvalues --   -0.50190  -0.49421  -0.48069  -0.47378  -0.46625
 Alpha  occ. eigenvalues --   -0.45702  -0.44455  -0.43854  -0.43570  -0.42898
 Alpha  occ. eigenvalues --   -0.42335  -0.41890  -0.41406  -0.40870  -0.40470
 Alpha  occ. eigenvalues --   -0.39779  -0.39032  -0.38012  -0.37959  -0.37541
 Alpha  occ. eigenvalues --   -0.36953  -0.36725  -0.35787  -0.35508  -0.34818
 Alpha  occ. eigenvalues --   -0.34355  -0.33513  -0.33301  -0.32986  -0.32341
 Alpha  occ. eigenvalues --   -0.31754  -0.30714  -0.30131  -0.28807  -0.27289
 Alpha  occ. eigenvalues --   -0.24699  -0.23154  -0.22333
 Alpha virt. eigenvalues --   -0.01059  -0.00223   0.00190   0.00684   0.01566
 Alpha virt. eigenvalues --    0.01859   0.01988   0.02836   0.03309   0.03737
 Alpha virt. eigenvalues --    0.03953   0.04586   0.04609   0.05209   0.05582

 Mulliken atomic charges:
              1
     1  C    0.250773
     2  C   -0.533402
     3  H    0.163400
     4  H    0.160243
     5  C   -0.394970
     6  H    0.150400
     7  C   -0.119642
     8  H    0.161574
     9  C   -0.261336
    10  H    0.187255
    11  C   -0.262854
    12  H    0.162905
    13  C    1.238701
    14  C    0.171035
    15  C    0.368588
    16  C   -0.631998
    17  C   -0.813602
    18  C   -0.182073
    19  H    0.149197
    20  H    0.151374
    21  O   -0.539309
    22  H    0.465598
    23  O   -0.574788
    24  H    0.433435
    25  O   -0.539163
    26  H    0.416054
    27  C   -0.410456
    28  H    0.161927
    29  H    0.162096
    30  H    0.170985
    31  O   -0.646875
    32  H    0.428344
    33  H    0.166471
    34  C    0.460564
    35  C   -0.495522
    36  H    0.146129
    37  H    0.144237
    38  C   -0.682276
    39  H    0.174241
    40  H    0.156940
    41  H    0.166161
    42  C   -0.051911
    43  H    0.152808
    44  H    0.151484
    45  C   -0.600386
    46  H    0.152348
    47  H    0.157454
    48  H    0.157839
 Sum of Mulliken atomic charges =   0.00000

 Dipole moment (field-independent basis, Debye):
    X=              0.9009    Y=              2.4110    Z=             -3.1112  Tot=              4.0378
 Quadrupole moment (field-independent basis, Debye-Ang):
   XX=           -120.9254   YY=           -142.2575   ZZ=           -136.0693
   XY=             -0.7001   XZ=             12.2480   YZ=             -3.4393

 Normal termination of Gaussian 09 at Fri Dec 23 15:33:26 2022.
