 Gaussian 09, Revision C.01,

 ------------------------------------------------
 # mPW1PW91/6-31+G** scrf=(PCM,solvent=water) nmr
 ------------------------------------------------

 99/9=1/99;
 -------
 comment
 -------
 Charge =  0 Multiplicity = 1

 SCF Done:  E(RmPW1PW91) =  -1002.30677670     A.U. after   14 cycles

      1  C    Isotropic =   124.4981   Anisotropy =    48.4972

      2  C    Isotropic =   159.5628   Anisotropy =    24.4671

      3  H    Isotropic =    29.7605   Anisotropy =     8.5481

      4  H    Isotropic =    29.4614   Anisotropy =     9.1530

      5  C    Isotropic =   170.0570   Anisotropy =    17.0358

      6  H    Isotropic =    30.1987   Anisotropy =    10.4088

      7  C    Isotropic =   148.9555   Anisotropy =    22.0438

      8  H    Isotropic =    28.8900   Anisotropy =     7.4464

      9  C    Isotropic =   158.5499   Anisotropy =    29.6240

     10  H    Isotropic =    27.1358   Anisotropy =     6.5031

     11  C    Isotropic =   117.6541   Anisotropy =    31.6562

     12  H    Isotropic =    27.3602   Anisotropy =     4.5385

     13  C    Isotropic =    92.2295   Anisotropy =   115.6212

     14  C    Isotropic =    49.2218   Anisotropy =   192.4612

     15  C    Isotropic =    42.6007   Anisotropy =   125.4637

     16  C    Isotropic =    42.4871   Anisotropy =   127.2322

     17  C    Isotropic =    82.5766   Anisotropy =   113.4910

     18  C    Isotropic =    91.9236   Anisotropy =   102.1312

     19  H    Isotropic =    24.7978   Anisotropy =     8.2956

     20  H    Isotropic =    25.0384   Anisotropy =     7.0023

     21  O    Isotropic =   217.5920   Anisotropy =    80.7583

     22  H    Isotropic =    22.3680   Anisotropy =    29.0317

     23  O    Isotropic =   229.7355   Anisotropy =    50.2345

     24  H    Isotropic =    26.2659   Anisotropy =    16.0189

     25  O    Isotropic =   291.7643   Anisotropy =    44.1225

     26  H    Isotropic =    28.9614   Anisotropy =    20.0206

     27  C    Isotropic =   167.9565   Anisotropy =    45.4170

     28  H    Isotropic =    30.4452   Anisotropy =     9.4193

     29  H    Isotropic =    30.1035   Anisotropy =     8.5878

     30  H    Isotropic =    30.5541   Anisotropy =    11.0306

     31  O    Isotropic =   278.5107   Anisotropy =    33.9455

     32  H    Isotropic =    28.6015   Anisotropy =    12.6653

     33  H    Isotropic =    28.8968   Anisotropy =     5.7998

     34  C    Isotropic =    45.2080   Anisotropy =   177.7487

     35  C    Isotropic =    87.5934   Anisotropy =   120.8630

     36  H    Isotropic =    26.3871   Anisotropy =     5.4340

     37  H    Isotropic =    26.4809   Anisotropy =     8.0939

     38  C    Isotropic =   171.3339   Anisotropy =    40.4391

     39  H    Isotropic =    29.8760   Anisotropy =     8.9676

     40  H    Isotropic =    30.0112   Anisotropy =     8.9913

     41  H    Isotropic =    29.6715   Anisotropy =     5.3681

     42  C    Isotropic =   164.8938   Anisotropy =    27.4988

     43  H    Isotropic =    29.2115   Anisotropy =     7.3723

     44  H    Isotropic =    29.1605   Anisotropy =     7.4435

     45  C    Isotropic =   177.9293   Anisotropy =    29.3416

     46  H    Isotropic =    30.2862   Anisotropy =    12.0640

     47  H    Isotropic =    30.5933   Anisotropy =     7.3966

     48  H    Isotropic =    30.5088   Anisotropy =     7.0822

 Normal termination of Gaussian 09 at Fri Dec 23 15:07:27 2022.
 Gaussian 09:  EM64L-G09RevC.01 23-Sep-2011

 ----------------------------------------------------------------------
 # B3LYP/6-31+G** geom=allcheck test scrf=(pcm,solvent=water,smd,dovacu
 um)
 ----------------------------------------------------------------------

 Structure from the checkpoint file:  03_RSRS_THC_003_optB_NMR.chk
 -------
 comment
 -------
 Charge =  0 Multiplicity = 1

                         Standard orientation:
 ---------------------------------------------------------------------
 Center     Atomic      Atomic             Coordinates (Angstroms)
 Number     Number       Type             X           Y           Z
 ---------------------------------------------------------------------
      1          6           0        2.505157   -1.525933   -0.237259
      2          6           0        3.415015   -0.422974   -0.788511
      3          1           0        4.233249   -0.233540   -0.081606
      4          1           0        3.874820   -0.752106   -1.729043
      5          6           0        2.688538    0.894070   -1.056270
      6          1           0        3.442774    1.652310   -1.308012
      7          6           0        1.867124    1.387526    0.152716
      8          1           0        2.650812    1.605686    0.898567
      9          6           0        0.978989    0.288541    0.827863
     10          1           0        0.891521    0.674608    1.854917
     11          6           0        1.759007   -1.041327    1.021961
     12          1           0        2.508250   -0.871065    1.807364
     13          6           0       -0.480825    0.123220    0.378341
     14          6           0       -3.265462    0.016627   -0.269024
     15          6           0       -1.484719    0.036882    1.368861
     16          6           0       -0.929360    0.068354   -0.945301
     17          6           0       -2.291105    0.042248   -1.268224
     18          6           0       -2.849360   -0.010079    1.061760
     19          1           0       -2.580512    0.020139   -2.316954
     20          1           0       -3.593640   -0.075318    1.850204
     21          8           0       -0.097078   -0.010389   -2.021022
     22          1           0        0.587540   -0.681510   -1.804567
     23          8           0       -1.108425   -0.044981    2.688316
     24          1           0       -1.905801    0.042663    3.238702
     25          8           0        0.910421   -2.095480    1.500746
     26          1           0        0.303728   -1.692557    2.153785
     27          6           0        3.336313   -2.783590    0.050787
     28          1           0        3.847771   -3.124633   -0.856854
     29          1           0        2.703872   -3.617612    0.374598
     30          1           0        4.089822   -2.599605    0.823470
     31          8           0        1.535509   -1.886860   -1.231832
     32          1           0        0.955364   -2.539086   -0.779118
     33          1           0        2.084168    0.789699   -1.957700
     34          6           0        1.153873    2.729887   -0.041536
     35          6           0        0.845251    3.262486   -1.236579
     36          1           0        0.338678    4.219514   -1.318155
     37          1           0        1.052410    2.755080   -2.172756
     38          6           0        0.812270    3.480444    1.221643
     39          1           0        0.379393    4.464735    1.012529
     40          1           0        1.712483    3.640506    1.823870
     41          1           0        0.085530    2.924122    1.820710
     42          6           0       -4.727396   -0.039085   -0.625454
     43          1           0       -5.314288    0.475332    0.145269
     44          1           0       -4.901346    0.512927   -1.557189
     45          6           0       -5.219974   -1.470260   -0.776393
     46          1           0       -6.283610   -1.479045   -1.034663
     47          1           0       -5.091902   -2.034762    0.153455
     48          1           0       -4.674519   -1.997029   -1.566759
 ---------------------------------------------------------------------

 SCF Done:  E(RB3LYP) =  -1002.54593850     A.U. after   14 cycles

 The electronic state is 1-A.
 Alpha  occ. eigenvalues --  -19.19072 -19.17532 -19.16453 -19.15956 -10.25471
 Alpha  occ. eigenvalues --  -10.24803 -10.24547 -10.23968 -10.19956 -10.19836
 Alpha  occ. eigenvalues --  -10.19595 -10.19491 -10.19479 -10.18080 -10.18002
 Alpha  occ. eigenvalues --  -10.17968 -10.17422 -10.17247 -10.17138 -10.17085
 Alpha  occ. eigenvalues --  -10.17081 -10.16940  -1.06743  -1.05811  -1.04226
 Alpha  occ. eigenvalues --   -1.02337  -0.85493  -0.83534  -0.79392  -0.79026
 Alpha  occ. eigenvalues --   -0.75466  -0.74123  -0.72982  -0.71298  -0.67987
 Alpha  occ. eigenvalues --   -0.67517  -0.64590  -0.62008  -0.61454  -0.60236
 Alpha  occ. eigenvalues --   -0.58589  -0.56293  -0.54124  -0.52416  -0.51336
 Alpha  occ. eigenvalues --   -0.50535  -0.49444  -0.48451  -0.47175  -0.46585
 Alpha  occ. eigenvalues --   -0.45447  -0.45205  -0.43515  -0.43330  -0.42625
 Alpha  occ. eigenvalues --   -0.42537  -0.41889  -0.41461  -0.40753  -0.40483
 Alpha  occ. eigenvalues --   -0.39522  -0.38868  -0.38636  -0.38027  -0.37726
 Alpha  occ. eigenvalues --   -0.37061  -0.36666  -0.35950  -0.35637  -0.34977
 Alpha  occ. eigenvalues --   -0.34773  -0.34127  -0.33143  -0.32746  -0.31899
 Alpha  occ. eigenvalues --   -0.31534  -0.30131  -0.29630  -0.28554  -0.28123
 Alpha  occ. eigenvalues --   -0.24665  -0.23037  -0.21981
 Alpha virt. eigenvalues --   -0.00823  -0.00056   0.00250   0.00631   0.01593
 Alpha virt. eigenvalues --    0.01789   0.01877   0.02918   0.03377   0.03445
 Alpha virt. eigenvalues --    0.03995   0.04529   0.04654   0.05338   0.05408

 Mulliken atomic charges:
              1
     1  C    0.335787
     2  C   -0.472929
     3  H    0.171791
     4  H    0.162688
     5  C   -0.331749
     6  H    0.150587
     7  C   -0.004295
     8  H    0.156146
     9  C   -0.431989
    10  H    0.176743
    11  C   -0.122422
    12  H    0.153345
    13  C    1.422866
    14  C    0.102844
    15  C    0.168935
    16  C   -0.693461
    17  C   -0.724755
    18  C   -0.200967
    19  H    0.146244
    20  H    0.150911
    21  O   -0.569045
    22  H    0.475665
    23  O   -0.573426
    24  H    0.449073
    25  O   -0.593183
    26  H    0.415992
    27  C   -0.599402
    28  H    0.164283
    29  H    0.163802
    30  H    0.169464
    31  O   -0.582031
    32  H    0.420234
    33  H    0.158773
    34  C    0.511933
    35  C   -0.534996
    36  H    0.146188
    37  H    0.143410
    38  C   -0.668476
    39  H    0.156716
    40  H    0.166346
    41  H    0.173140
    42  C   -0.085021
    43  H    0.151433
    44  H    0.151889
    45  C   -0.595944
    46  H    0.151985
    47  H    0.157172
    48  H    0.157707
 Sum of Mulliken atomic charges =   0.00000

 Dipole moment (field-independent basis, Debye):
    X=             -0.2265    Y=             -0.1383    Z=              5.5484  Tot=              5.5547
 Quadrupole moment (field-independent basis, Debye-Ang):
   XX=           -112.9828   YY=           -140.4230   ZZ=           -132.2288
   XY=              0.2011   XZ=             -4.9792   YZ=              4.4999

 Normal termination of Gaussian 09 at Fri Dec 23 15:36:37 2022.
