 Gaussian 09, Revision C.01,

 ------------------------------------------------
 # mPW1PW91/6-31+G** scrf=(PCM,solvent=water) nmr
 ------------------------------------------------

 99/9=1/99;
 -------
 comment
 -------
 Charge =  0 Multiplicity = 1

 SCF Done:  E(RmPW1PW91) =  -1002.30588573     A.U. after   14 cycles

      1  C    Isotropic =   120.6256   Anisotropy =    47.5138

      2  C    Isotropic =   165.4084   Anisotropy =    20.4963

      3  H    Isotropic =    30.0311   Anisotropy =     9.5417

      4  H    Isotropic =    29.2633   Anisotropy =     6.5189

      5  C    Isotropic =   163.2978   Anisotropy =    25.6135

      6  H    Isotropic =    29.4360   Anisotropy =     8.4746

      7  C    Isotropic =   153.4448   Anisotropy =    15.5137

      8  H    Isotropic =    28.8932   Anisotropy =     5.4927

      9  C    Isotropic =   155.5426   Anisotropy =    18.4643

     10  H    Isotropic =    27.9859   Anisotropy =     8.1001

     11  C    Isotropic =   116.7975   Anisotropy =    33.6985

     12  H    Isotropic =    27.6665   Anisotropy =     4.7512

     13  C    Isotropic =    88.2651   Anisotropy =   115.6076

     14  C    Isotropic =    49.5837   Anisotropy =   190.3260

     15  C    Isotropic =    43.8924   Anisotropy =   124.3576

     16  C    Isotropic =    40.4399   Anisotropy =   132.0594

     17  C    Isotropic =    88.6077   Anisotropy =   106.9790

     18  C    Isotropic =    93.7948   Anisotropy =    94.6811

     19  H    Isotropic =    24.8455   Anisotropy =     7.7665

     20  H    Isotropic =    25.1924   Anisotropy =     7.1574

     21  O    Isotropic =   211.5685   Anisotropy =    70.6503

     22  H    Isotropic =    21.0053   Anisotropy =    29.4448

     23  O    Isotropic =   226.7519   Anisotropy =    52.3366

     24  H    Isotropic =    26.5292   Anisotropy =    15.2282

     25  O    Isotropic =   286.8761   Anisotropy =    53.7297

     26  H    Isotropic =    26.8922   Anisotropy =    18.0406

     27  C    Isotropic =   170.9326   Anisotropy =    39.7614

     28  H    Isotropic =    30.2603   Anisotropy =    10.4902

     29  H    Isotropic =    30.6326   Anisotropy =     8.8440

     30  H    Isotropic =    29.7260   Anisotropy =     7.5550

     31  O    Isotropic =   258.0048   Anisotropy =    96.9579

     32  H    Isotropic =    30.2446   Anisotropy =    18.1120

     33  H    Isotropic =    29.5677   Anisotropy =     9.2040

     34  C    Isotropic =    41.4984   Anisotropy =   181.8220

     35  C    Isotropic =    83.0349   Anisotropy =   121.9666

     36  H    Isotropic =    26.1672   Anisotropy =     5.8408

     37  H    Isotropic =    25.7870   Anisotropy =     6.4140

     38  C    Isotropic =   165.9564   Anisotropy =    43.6797

     39  H    Isotropic =    30.7147   Anisotropy =     7.6103

     40  H    Isotropic =    30.2077   Anisotropy =     8.3584

     41  H    Isotropic =    30.0000   Anisotropy =     8.6082

     42  C    Isotropic =   164.4532   Anisotropy =    28.9087

     43  H    Isotropic =    29.2665   Anisotropy =     7.2765

     44  H    Isotropic =    29.2263   Anisotropy =     7.0955

     45  C    Isotropic =   177.8012   Anisotropy =    28.0510

     46  H    Isotropic =    30.3496   Anisotropy =    11.9109

     47  H    Isotropic =    30.5889   Anisotropy =     7.5959

     48  H    Isotropic =    30.6079   Anisotropy =     7.3542

 Normal termination of Gaussian 09 at Fri Dec 23 15:01:35 2022.
 Gaussian 09:  EM64L-G09RevC.01 23-Sep-2011

 ----------------------------------------------------------------------
 # B3LYP/6-31+G** geom=allcheck test scrf=(pcm,solvent=water,smd,dovacu
 um)
 ----------------------------------------------------------------------

 Structure from the checkpoint file:  03_RSRS_THC_008_optB_NMR.chk
 -------
 comment
 -------
 Charge =  0 Multiplicity = 1

                         Standard orientation:
 ---------------------------------------------------------------------
 Center     Atomic      Atomic             Coordinates (Angstroms)
 Number     Number       Type             X           Y           Z
 ---------------------------------------------------------------------
      1          6           0        3.015906   -1.286167   -0.211689
      2          6           0        3.695971   -0.009041    0.304084
      3          1           0        4.679586   -0.259521    0.723649
      4          1           0        3.928209    0.650729   -0.538429
      5          6           0        2.881546    0.746458    1.357054
      6          1           0        2.919938    0.164879    2.288172
      7          6           0        1.387586    0.989858    1.015776
      8          1           0        0.920372    1.145359    2.001629
      9          6           0        0.737410   -0.306739    0.438202
     10          1           0        0.829208   -1.036929    1.253067
     11          6           0        1.568824   -0.980666   -0.677825
     12          1           0        1.084599   -1.908765   -1.005897
     13          6           0       -0.773064   -0.211614    0.209118
     14          6           0       -3.616859   -0.066213   -0.035804
     15          6           0       -1.637926   -0.524370    1.280971
     16          6           0       -1.388296    0.198141   -0.983050
     17          6           0       -2.781901    0.261313   -1.105997
     18          6           0       -3.031365   -0.463530    1.166132
     19          1           0       -3.208012    0.580966   -2.055063
     20          1           0       -3.668096   -0.722018    2.007339
     21          8           0       -0.720905    0.594552   -2.105895
     22          1           0        0.246785    0.524693   -1.957923
     23          8           0       -1.097629   -0.897615    2.486367
     24          1           0       -1.818544   -1.026854    3.124535
     25          8           0        1.660835   -0.151999   -1.849534
     26          1           0        2.482745   -0.438273   -2.304477
     27          6           0        3.088648   -2.417418    0.819726
     28          1           0        4.131277   -2.701482    1.004307
     29          1           0        2.588264   -3.316872    0.443179
     30          1           0        2.637122   -2.152428    1.779110
     31          8           0        3.755002   -1.711375   -1.376658
     32          1           0        3.471034   -2.616953   -1.598077
     33          1           0        3.380264    1.696200    1.588250
     34          6           0        1.121181    2.299156    0.265763
     35          6           0        1.840229    2.767006   -0.768115
     36          1           0        1.597725    3.714648   -1.241042
     37          1           0        2.671968    2.227566   -1.199659
     38          6           0       -0.018982    3.132903    0.803761
     39          1           0       -0.961499    2.581113    0.778791
     40          1           0       -0.165744    4.053749    0.228897
     41          1           0        0.183948    3.422555    1.840245
     42          6           0       -5.114006   -0.009440   -0.187084
     43          1           0       -5.571878    0.261485    0.772094
     44          1           0       -5.384861    0.789570   -0.888017
     45          6           0       -5.683643   -1.333640   -0.672338
     46          1           0       -6.771355   -1.263593   -0.772718
     47          1           0       -5.459103   -2.143855    0.029684
     48          1           0       -5.269928   -1.610472   -1.647994
 ---------------------------------------------------------------------

 SCF Done:  E(RB3LYP) =  -1002.54531151     A.U. after   14 cycles

 The electronic state is 1-A.
 Alpha  occ. eigenvalues --  -19.18742 -19.16807 -19.16657 -19.16488 -10.25442
 Alpha  occ. eigenvalues --  -10.24957 -10.24956 -10.24155 -10.20244 -10.19584
 Alpha  occ. eigenvalues --  -10.19478 -10.19357 -10.19258 -10.18068 -10.17886
 Alpha  occ. eigenvalues --  -10.17761 -10.17708 -10.17390 -10.17344 -10.17074
 Alpha  occ. eigenvalues --  -10.17059 -10.16524  -1.06440  -1.05939  -1.04487
 Alpha  occ. eigenvalues --   -1.01822  -0.85594  -0.83579  -0.79140  -0.79021
 Alpha  occ. eigenvalues --   -0.75503  -0.73868  -0.73139  -0.71129  -0.68216
 Alpha  occ. eigenvalues --   -0.67468  -0.64520  -0.62158  -0.61772  -0.60588
 Alpha  occ. eigenvalues --   -0.59056  -0.56353  -0.53952  -0.52409  -0.51132
 Alpha  occ. eigenvalues --   -0.50036  -0.49135  -0.48554  -0.47737  -0.46944
 Alpha  occ. eigenvalues --   -0.45818  -0.44744  -0.43558  -0.43115  -0.42389
 Alpha  occ. eigenvalues --   -0.42049  -0.41733  -0.41025  -0.40483  -0.39835
 Alpha  occ. eigenvalues --   -0.39344  -0.38807  -0.38597  -0.38466  -0.37725
 Alpha  occ. eigenvalues --   -0.37490  -0.36731  -0.36218  -0.35998  -0.35070
 Alpha  occ. eigenvalues --   -0.34531  -0.33795  -0.33077  -0.32930  -0.31962
 Alpha  occ. eigenvalues --   -0.31176  -0.30492  -0.30411  -0.29559  -0.27865
 Alpha  occ. eigenvalues --   -0.24410  -0.22479  -0.21553
 Alpha virt. eigenvalues --   -0.00426  -0.00041   0.00148   0.00958   0.01428
 Alpha virt. eigenvalues --    0.01901   0.02203   0.02928   0.03243   0.03383
 Alpha virt. eigenvalues --    0.04219   0.04299   0.04416   0.05066   0.05419

 Mulliken atomic charges:
              1
     1  C   -0.083195
     2  C   -0.269476
     3  H    0.155112
     4  H    0.157949
     5  C   -0.415460
     6  H    0.158248
     7  C   -0.036955
     8  H    0.144548
     9  C    0.412980
    10  H    0.163689
    11  C   -0.122740
    12  H    0.143018
    13  C    0.732860
    14  C    0.019872
    15  C    0.476704
    16  C   -0.703277
    17  C   -0.750690
    18  C   -0.158746
    19  H    0.145353
    20  H    0.147826
    21  O   -0.625203
    22  H    0.488663
    23  O   -0.602579
    24  H    0.447195
    25  O   -0.760472
    26  H    0.459770
    27  C   -0.284817
    28  H    0.172081
    29  H    0.161360
    30  H    0.177519
    31  O   -0.602997
    32  H    0.410085
    33  H    0.154588
    34  C    0.411252
    35  C   -0.469975
    36  H    0.140450
    37  H    0.142362
    38  C   -0.696119
    39  H    0.173524
    40  H    0.153136
    41  H    0.166434
    42  C   -0.115829
    43  H    0.150602
    44  H    0.151182
    45  C   -0.587190
    46  H    0.152040
    47  H    0.157538
    48  H    0.157781
 Sum of Mulliken atomic charges =   0.00000

 Dipole moment (field-independent basis, Debye):
    X=              0.3412    Y=             -4.0895    Z=              4.8421  Tot=              6.3472
 Quadrupole moment (field-independent basis, Debye-Ang):
   XX=           -124.0848   YY=           -129.6213   ZZ=           -132.6547
   XY=             -5.2203   XZ=             -7.2664   YZ=              2.1131

 Normal termination of Gaussian 09 at Fri Dec 23 15:32:13 2022.
