 Gaussian 09, Revision C.01,

 ------------------------------------------------
 # mPW1PW91/6-31+G** scrf=(PCM,solvent=water) nmr
 ------------------------------------------------

 99/9=1/99;
 -------
 comment
 -------
 Charge =  0 Multiplicity = 1

 SCF Done:  E(RmPW1PW91) =  -1002.30419927     A.U. after   14 cycles

      1  C    Isotropic =   120.8834   Anisotropy =    47.4021

      2  C    Isotropic =   161.3092   Anisotropy =    27.7693

      3  H    Isotropic =    30.1250   Anisotropy =     8.5202

      4  H    Isotropic =    29.1390   Anisotropy =     6.2218

      5  C    Isotropic =   163.0716   Anisotropy =    25.2495

      6  H    Isotropic =    29.5100   Anisotropy =     8.3917

      7  C    Isotropic =   154.8371   Anisotropy =    17.2426

      8  H    Isotropic =    28.8190   Anisotropy =     5.7331

      9  C    Isotropic =   156.1380   Anisotropy =    18.7994

     10  H    Isotropic =    28.0933   Anisotropy =     7.8929

     11  C    Isotropic =   119.2776   Anisotropy =    40.7314

     12  H    Isotropic =    27.3434   Anisotropy =     4.6910

     13  C    Isotropic =    89.8251   Anisotropy =   114.6474

     14  C    Isotropic =    49.9801   Anisotropy =   189.7618

     15  C    Isotropic =    43.8895   Anisotropy =   124.9030

     16  C    Isotropic =    40.6669   Anisotropy =   134.5298

     17  C    Isotropic =    88.7925   Anisotropy =   106.3317

     18  C    Isotropic =    93.8691   Anisotropy =    95.6109

     19  H    Isotropic =    24.9507   Anisotropy =     7.6832

     20  H    Isotropic =    25.2519   Anisotropy =     6.9308

     21  O    Isotropic =   207.1073   Anisotropy =    76.3012

     22  H    Isotropic =    20.5564   Anisotropy =    29.6319

     23  O    Isotropic =   226.3439   Anisotropy =    45.1908

     24  H    Isotropic =    26.5595   Anisotropy =    15.2165

     25  O    Isotropic =   288.7787   Anisotropy =    48.2715

     26  H    Isotropic =    26.9880   Anisotropy =    18.2404

     27  C    Isotropic =   170.3758   Anisotropy =    40.0268

     28  H    Isotropic =    30.6301   Anisotropy =    10.2076

     29  H    Isotropic =    30.3649   Anisotropy =     8.8851

     30  H    Isotropic =    29.7462   Anisotropy =     7.6453

     31  O    Isotropic =   248.3420   Anisotropy =    57.9417

     32  H    Isotropic =    29.8375   Anisotropy =    16.7855

     33  H    Isotropic =    29.7893   Anisotropy =     8.7722

     34  C    Isotropic =    40.2971   Anisotropy =   181.7895

     35  C    Isotropic =    82.9993   Anisotropy =   121.5831

     36  H    Isotropic =    26.0659   Anisotropy =     5.5275

     37  H    Isotropic =    25.7102   Anisotropy =     6.5934

     38  C    Isotropic =   167.1345   Anisotropy =    43.1899

     39  H    Isotropic =    30.5608   Anisotropy =     7.3933

     40  H    Isotropic =    30.0190   Anisotropy =     8.4948

     41  H    Isotropic =    29.9760   Anisotropy =     8.3907

     42  C    Isotropic =   164.4478   Anisotropy =    29.4918

     43  H    Isotropic =    29.1804   Anisotropy =     7.6562

     44  H    Isotropic =    29.2824   Anisotropy =     7.4290

     45  C    Isotropic =   176.8702   Anisotropy =    29.8837

     46  H    Isotropic =    30.3121   Anisotropy =    11.9190

     47  H    Isotropic =    30.5394   Anisotropy =     7.1792

     48  H    Isotropic =    30.5845   Anisotropy =     7.1476

 Normal termination of Gaussian 09 at Fri Dec 23 15:06:47 2022.
 Gaussian 09:  EM64L-G09RevC.01 23-Sep-2011

 ----------------------------------------------------------------------
 # B3LYP/6-31+G** geom=allcheck test scrf=(pcm,solvent=water,smd,dovacu
 um)
 ----------------------------------------------------------------------

 Structure from the checkpoint file:  03_RSRS_THC_001_optB_NMR.chk
 -------
 comment
 -------
 Charge =  0 Multiplicity = 1

                         Standard orientation:
 ---------------------------------------------------------------------
 Center     Atomic      Atomic             Coordinates (Angstroms)
 Number     Number       Type             X           Y           Z
 ---------------------------------------------------------------------
      1          6           0       -3.194917   -0.948957    0.317485
      2          6           0       -3.656472    0.290581   -0.463978
      3          1           0       -4.649670    0.105802   -0.894807
      4          1           0       -3.818829    1.122326    0.229352
      5          6           0       -2.699944    0.711649   -1.580704
      6          1           0       -2.784962   -0.027458   -2.388929
      7          6           0       -1.203146    0.811039   -1.188398
      8          1           0       -0.677874    0.715175   -2.152466
      9          6           0       -0.770246   -0.430353   -0.347240
     10          1           0       -0.930042   -1.278964   -1.025512
     11          6           0       -1.734767   -0.776180    0.811123
     12          1           0       -1.404228   -1.691604    1.317806
     13          6           0        0.728118   -0.491066   -0.039194
     14          6           0        3.551183   -0.674008    0.366964
     15          6           0        1.584281   -1.112669   -0.974657
     16          6           0        1.345548    0.062035    1.092467
     17          6           0        2.728323   -0.030538    1.293500
     18          6           0        2.966989   -1.209491   -0.780808
     19          1           0        3.156810    0.419546    2.186924
     20          1           0        3.597130   -1.695354   -1.520159
     21          8           0        0.694707    0.755950    2.071505
     22          1           0       -0.269783    0.756536    1.889239
     23          8           0        1.048193   -1.634524   -2.125674
     24          1           0        1.767786   -1.998878   -2.666873
     25          8           0       -1.750750    0.246371    1.821986
     26          1           0       -2.548648    0.035734    2.356430
     27          6           0       -3.394143   -2.237893   -0.486335
     28          1           0       -4.455788   -2.392663   -0.711807
     29          1           0       -3.076235   -3.108640    0.098353
     30          1           0       -2.847866   -2.240843   -1.432929
     31          8           0       -4.019218   -1.050756    1.498835
     32          1           0       -4.943499   -1.145036    1.205497
     33          1           0       -3.044477    1.658434   -2.015527
     34          6           0       -0.783565    2.190129   -0.670237
     35          6           0       -1.452343    2.920267    0.237619
     36          1           0       -1.094770    3.897708    0.549371
     37          1           0       -2.351558    2.572334    0.726832
     38          6           0        0.468239    2.761405   -1.295351
     39          1           0        1.326259    2.103728   -1.136053
     40          1           0        0.727755    3.741778   -0.881329
     41          1           0        0.325549    2.887906   -2.373766
     42          6           0        5.039131   -0.747920    0.585865
     43          1           0        5.251915   -0.810077    1.660084
     44          1           0        5.431173   -1.672868    0.145595
     45          6           0        5.759100    0.451130   -0.012161
     46          1           0        6.836813    0.370616    0.161465
     47          1           0        5.412005    1.387787    0.437180
     48          1           0        5.593367    0.515690   -1.092934
 ---------------------------------------------------------------------

 SCF Done:  E(RB3LYP) =  -1002.54335184     A.U. after   14 cycles

 The electronic state is 1-A.
 Alpha  occ. eigenvalues --  -19.18760 -19.16787 -19.16629 -19.16511 -10.25482
 Alpha  occ. eigenvalues --  -10.24979 -10.24854 -10.24499 -10.20406 -10.19600
 Alpha  occ. eigenvalues --  -10.19543 -10.19369 -10.19257 -10.18072 -10.17777
 Alpha  occ. eigenvalues --  -10.17777 -10.17474 -10.17353 -10.17266 -10.17078
 Alpha  occ. eigenvalues --  -10.17075 -10.16530  -1.06459  -1.05995  -1.04406
 Alpha  occ. eigenvalues --   -1.01961  -0.85627  -0.83598  -0.79176  -0.78930
 Alpha  occ. eigenvalues --   -0.75443  -0.73996  -0.73149  -0.71091  -0.68121
 Alpha  occ. eigenvalues --   -0.67485  -0.64651  -0.62120  -0.61287  -0.60934
 Alpha  occ. eigenvalues --   -0.59101  -0.57044  -0.53962  -0.52011  -0.50998
 Alpha  occ. eigenvalues --   -0.50015  -0.49099  -0.48615  -0.48252  -0.46394
 Alpha  occ. eigenvalues --   -0.45817  -0.44124  -0.43384  -0.42838  -0.42742
 Alpha  occ. eigenvalues --   -0.42078  -0.42012  -0.41246  -0.40374  -0.39992
 Alpha  occ. eigenvalues --   -0.39743  -0.38865  -0.38584  -0.38462  -0.37919
 Alpha  occ. eigenvalues --   -0.37197  -0.37156  -0.36237  -0.36007  -0.35407
 Alpha  occ. eigenvalues --   -0.34610  -0.33805  -0.33086  -0.32935  -0.32242
 Alpha  occ. eigenvalues --   -0.30865  -0.30506  -0.30161  -0.29129  -0.27711
 Alpha  occ. eigenvalues --   -0.24478  -0.22535  -0.21555
 Alpha virt. eigenvalues --   -0.00400  -0.00074   0.00079   0.00996   0.01371
 Alpha virt. eigenvalues --    0.01877   0.02220   0.02785   0.03152   0.03344
 Alpha virt. eigenvalues --    0.04267   0.04433   0.04628   0.04743   0.05478

 Mulliken atomic charges:
              1
     1  C    0.059768
     2  C   -0.272290
     3  H    0.155729
     4  H    0.159563
     5  C   -0.427994
     6  H    0.157662
     7  C    0.009357
     8  H    0.145195
     9  C    0.348643
    10  H    0.166389
    11  C   -0.218100
    12  H    0.146149
    13  C    0.752207
    14  C   -0.028884
    15  C    0.551358
    16  C   -0.839109
    17  C   -0.674935
    18  C   -0.194132
    19  H    0.145693
    20  H    0.148086
    21  O   -0.629666
    22  H    0.490011
    23  O   -0.600434
    24  H    0.448228
    25  O   -0.738825
    26  H    0.454878
    27  C   -0.303170
    28  H    0.166508
    29  H    0.160312
    30  H    0.174416
    31  O   -0.627720
    32  H    0.419144
    33  H    0.152855
    34  C    0.382622
    35  C   -0.473582
    36  H    0.140423
    37  H    0.142426
    38  C   -0.692674
    39  H    0.173355
    40  H    0.152999
    41  H    0.166862
    42  C   -0.015270
    43  H    0.151479
    44  H    0.150749
    45  C   -0.604350
    46  H    0.151923
    47  H    0.158255
    48  H    0.157889
 Sum of Mulliken atomic charges =   0.00000

 Dipole moment (field-independent basis, Debye):
    X=             -2.6562    Y=             -3.4030    Z=             -5.2586  Tot=              6.8036
 Quadrupole moment (field-independent basis, Debye-Ang):
   XX=           -102.5679   YY=           -135.8066   ZZ=           -137.3472
   XY=             -0.1281   XZ=             -4.9827   YZ=              3.5500

 Normal termination of Gaussian 09 at Fri Dec 23 15:37:58 2022.
