 Gaussian 09, Revision C.01,

 ------------------------------------------------
 # mPW1PW91/6-31+G** scrf=(PCM,solvent=water) nmr
 ------------------------------------------------

 99/9=1/99;
 -------
 comment
 -------
 Charge =  0 Multiplicity = 1

 SCF Done:  E(RmPW1PW91) =  -1002.30240126     A.U. after   14 cycles

      1  C    Isotropic =   122.5613   Anisotropy =    41.0431

      2  C    Isotropic =   158.7857   Anisotropy =    30.1014

      3  H    Isotropic =    30.1092   Anisotropy =     9.1423

      4  H    Isotropic =    29.4074   Anisotropy =     6.0661

      5  C    Isotropic =   167.8053   Anisotropy =    22.9148

      6  H    Isotropic =    29.2791   Anisotropy =     8.0366

      7  C    Isotropic =   151.9789   Anisotropy =    21.4052

      8  H    Isotropic =    27.9855   Anisotropy =     7.0847

      9  C    Isotropic =   149.5215   Anisotropy =    29.1016

     10  H    Isotropic =    27.9871   Anisotropy =     4.9592

     11  C    Isotropic =   121.4886   Anisotropy =    42.6934

     12  H    Isotropic =    26.6214   Anisotropy =     1.8528

     13  C    Isotropic =    86.9649   Anisotropy =   120.7081

     14  C    Isotropic =    51.5359   Anisotropy =   189.3317

     15  C    Isotropic =    42.7804   Anisotropy =   125.0368

     16  C    Isotropic =    42.0473   Anisotropy =   121.8629

     17  C    Isotropic =    83.7560   Anisotropy =   108.8444

     18  C    Isotropic =    89.9206   Anisotropy =    98.1703

     19  H    Isotropic =    24.8176   Anisotropy =     7.5909

     20  H    Isotropic =    25.1209   Anisotropy =     6.9796

     21  O    Isotropic =   239.4004   Anisotropy =    59.4271

     22  H    Isotropic =    23.9725   Anisotropy =    24.0152

     23  O    Isotropic =   223.9147   Anisotropy =    40.5934

     24  H    Isotropic =    26.4938   Anisotropy =    15.1925

     25  O    Isotropic =   291.3092   Anisotropy =    53.3942

     26  H    Isotropic =    28.3286   Anisotropy =    15.2817

     27  C    Isotropic =   166.2834   Anisotropy =    47.0780

     28  H    Isotropic =    30.3945   Anisotropy =     9.7724

     29  H    Isotropic =    29.6141   Anisotropy =     8.1262

     30  H    Isotropic =    30.6559   Anisotropy =     9.0527

     31  O    Isotropic =   271.0932   Anisotropy =    81.6990

     32  H    Isotropic =    30.6362   Anisotropy =    17.8943

     33  H    Isotropic =    30.1625   Anisotropy =     9.7044

     34  C    Isotropic =    42.2905   Anisotropy =   182.2368

     35  C    Isotropic =    87.2869   Anisotropy =   110.6165

     36  H    Isotropic =    26.3289   Anisotropy =     5.2190

     37  H    Isotropic =    26.4689   Anisotropy =     6.2094

     38  C    Isotropic =   166.3170   Anisotropy =    44.3503

     39  H    Isotropic =    30.3449   Anisotropy =     6.2555

     40  H    Isotropic =    30.1853   Anisotropy =     8.6448

     41  H    Isotropic =    29.8004   Anisotropy =     8.2236

     42  C    Isotropic =   163.6671   Anisotropy =    29.7710

     43  H    Isotropic =    29.1034   Anisotropy =     7.4172

     44  H    Isotropic =    29.2153   Anisotropy =     7.4591

     45  C    Isotropic =   177.2130   Anisotropy =    30.4778

     46  H    Isotropic =    30.2561   Anisotropy =    12.0980

     47  H    Isotropic =    30.5978   Anisotropy =     7.1584

     48  H    Isotropic =    30.6037   Anisotropy =     7.0215

 Normal termination of Gaussian 09 at Fri Dec 23 15:15:17 2022.
 Gaussian 09:  EM64L-G09RevC.01 23-Sep-2011

 ----------------------------------------------------------------------
 # B3LYP/6-31+G** geom=allcheck test scrf=(pcm,solvent=water,smd,dovacu
 um)
 ----------------------------------------------------------------------

 Structure from the checkpoint file:  04_RSSR_THC_006_optB_NMR.chk
 -------
 comment
 -------
 Charge =  0 Multiplicity = 1

                         Standard orientation:
 ---------------------------------------------------------------------
 Center     Atomic      Atomic             Coordinates (Angstroms)
 Number     Number       Type             X           Y           Z
 ---------------------------------------------------------------------
      1          6           0        3.283880   -0.634340    0.061288
      2          6           0        3.601074    0.852236   -0.129446
      3          1           0        4.608130    1.069563    0.249563
      4          1           0        3.612913    1.105122   -1.194549
      5          6           0        2.620123    1.759931    0.606447
      6          1           0        2.801143    1.655549    1.684994
      7          6           0        1.131076    1.456299    0.339099
      8          1           0        0.617262    1.997643    1.144803
      9          6           0        0.810534   -0.064365    0.544493
     10          1           0        1.028701   -0.296864    1.599010
     11          6           0        1.800795   -0.943251   -0.262345
     12          1           0        1.643353   -0.825980   -1.337311
     13          6           0       -0.694204   -0.369284    0.414889
     14          6           0       -3.529306   -0.687354    0.206156
     15          6           0       -1.584394    0.183280    1.360120
     16          6           0       -1.281140   -1.149343   -0.592812
     17          6           0       -2.668434   -1.283034   -0.716922
     18          6           0       -2.973793    0.040559    1.259136
     19          1           0       -3.067305   -1.879635   -1.534480
     20          1           0       -3.630578    0.497520    1.993747
     21          8           0       -0.562119   -1.881983   -1.494863
     22          1           0        0.141789   -2.330953   -0.974784
     23          8           0       -1.076086    0.878188    2.428116
     24          1           0       -1.809213    1.144501    3.006082
     25          8           0        1.548061   -2.332930    0.045584
     26          1           0        1.945243   -2.456883    0.934526
     27          6           0        4.226515   -1.490259   -0.793290
     28          1           0        4.074403   -1.309492   -1.862312
     29          1           0        4.084182   -2.558504   -0.596202
     30          1           0        5.273670   -1.272646   -0.553028
     31          8           0        3.512113   -0.999602    1.434387
     32          1           0        4.439999   -0.792176    1.645765
     33          1           0        2.844635    2.806796    0.365756
     34          6           0        0.615432    2.099419   -0.955337
     35          6           0        1.009020    1.793192   -2.202855
     36          1           0        0.580569    2.297687   -3.065167
     37          1           0        1.746646    1.036301   -2.429009
     38          6           0       -0.427742    3.173164   -0.754477
     39          1           0       -1.312433    2.762138   -0.259084
     40          1           0       -0.756625    3.616199   -1.700619
     41          1           0       -0.023604    3.981095   -0.135581
     42          6           0       -5.021865   -0.823079    0.061313
     43          1           0       -5.263169   -1.790306   -0.396180
     44          1           0       -5.489931   -0.832257    1.053218
     45          6           0       -5.611792    0.302219   -0.774890
     46          1           0       -6.695807    0.179379   -0.863828
     47          1           0       -5.187256    0.311461   -1.784549
     48          1           0       -5.417146    1.279408   -0.319973
 ---------------------------------------------------------------------

 SCF Done:  E(RB3LYP) =  -1002.54250378     A.U. after   14 cycles

 The electronic state is 1-A.
 Alpha  occ. eigenvalues --  -19.18670 -19.17271 -19.16988 -19.16172 -10.25443
 Alpha  occ. eigenvalues --  -10.24804 -10.24674 -10.24266 -10.20136 -10.19720
 Alpha  occ. eigenvalues --  -10.19663 -10.19583 -10.18941 -10.18070 -10.18011
 Alpha  occ. eigenvalues --  -10.17610 -10.17522 -10.17510 -10.17213 -10.17071
 Alpha  occ. eigenvalues --  -10.16959 -10.16817  -1.06451  -1.05931  -1.04357
 Alpha  occ. eigenvalues --   -1.02050  -0.85552  -0.83512  -0.79033  -0.78845
 Alpha  occ. eigenvalues --   -0.75430  -0.74107  -0.73080  -0.71156  -0.68105
 Alpha  occ. eigenvalues --   -0.67545  -0.64361  -0.62102  -0.61041  -0.60518
 Alpha  occ. eigenvalues --   -0.58830  -0.57905  -0.53798  -0.51888  -0.51011
 Alpha  occ. eigenvalues --   -0.49770  -0.49139  -0.47960  -0.47706  -0.45953
 Alpha  occ. eigenvalues --   -0.45054  -0.44747  -0.44068  -0.43302  -0.42551
 Alpha  occ. eigenvalues --   -0.42100  -0.41922  -0.41775  -0.41118  -0.40589
 Alpha  occ. eigenvalues --   -0.40286  -0.39498  -0.38329  -0.37623  -0.37247
 Alpha  occ. eigenvalues --   -0.36970  -0.36496  -0.36165  -0.35277  -0.35147
 Alpha  occ. eigenvalues --   -0.34726  -0.34510  -0.33176  -0.33009  -0.32340
 Alpha  occ. eigenvalues --   -0.31245  -0.30498  -0.29842  -0.28511  -0.27320
 Alpha  occ. eigenvalues --   -0.24597  -0.22927  -0.22024
 Alpha virt. eigenvalues --   -0.00507   0.00013   0.00285   0.00415   0.01314
 Alpha virt. eigenvalues --    0.01792   0.01940   0.02838   0.03218   0.03380
 Alpha virt. eigenvalues --    0.04373   0.04582   0.04809   0.05033   0.05324

 Mulliken atomic charges:
              1
     1  C    0.195466
     2  C   -0.370732
     3  H    0.157898
     4  H    0.164749
     5  C   -0.472769
     6  H    0.155374
     7  C    0.259831
     8  H    0.147935
     9  C    0.085675
    10  H    0.163286
    11  C    0.162383
    12  H    0.182815
    13  C    0.458902
    14  C   -0.077639
    15  C    0.319985
    16  C   -0.357749
    17  C   -0.914465
    18  C   -0.011531
    19  H    0.147488
    20  H    0.150868
    21  O   -0.610373
    22  H    0.445884
    23  O   -0.617658
    24  H    0.450028
    25  O   -0.647282
    26  H    0.415938
    27  C   -0.272099
    28  H    0.166610
    29  H    0.164776
    30  H    0.163681
    31  O   -0.680213
    32  H    0.419193
    33  H    0.150414
    34  C    0.214332
    35  C   -0.527339
    36  H    0.143731
    37  H    0.146135
    38  C   -0.704108
    39  H    0.172939
    40  H    0.153614
    41  H    0.169490
    42  C   -0.027695
    43  H    0.151538
    44  H    0.150856
    45  C   -0.608168
    46  H    0.152325
    47  H    0.157729
    48  H    0.157953
 Sum of Mulliken atomic charges =   0.00000

 Dipole moment (field-independent basis, Debye):
    X=              2.1471    Y=              3.1022    Z=              3.3889  Tot=              5.0713
 Quadrupole moment (field-independent basis, Debye-Ang):
   XX=           -101.5110   YY=           -139.3462   ZZ=           -133.7789
   XY=             -3.5504   XZ=             -6.2015   YZ=              0.6232

 Normal termination of Gaussian 09 at Fri Dec 23 15:49:29 2022.
