 Gaussian 09, Revision C.01,
 Gaussian 09:  EM64L-G09RevC.01 23-Sep-2011

 -----------------------------------------------------------------
 # mPW1PW91/6-31g** scrf=(pcm,solvent=chloroform,smd,dovacuum) nmr
 -----------------------------------------------------------------

 99/9=1/99;
 -------
 comment
 -------
 Charge =  0 Multiplicity = 1

                         Standard orientation:
 ---------------------------------------------------------------------
 Center     Atomic      Atomic             Coordinates (Angstroms)
 Number     Number       Type             X           Y           Z
 ---------------------------------------------------------------------
      1          1           0        2.830065   -2.774580   -0.580846
      2          6           0        3.014500   -1.715925   -0.427564
      3          6           0        3.537531    1.034289    0.010585
      4          6           0        2.004643   -0.856105   -0.021712
      5          6           0        4.295832   -1.192767   -0.617995
      6          6           0        4.555704    0.169508   -0.398151
      7          6           0        2.272810    0.508393    0.194537
      8          1           0        5.105207   -1.847872   -0.932931
      9          1           0        5.560243    0.557836   -0.550034
     10          1           0        3.745932    2.087204    0.168535
     11          6           0        0.568288   -1.181454    0.310402
     12          6           0       -0.029994    0.254798    0.368376
     13          1           0       -0.679511    0.371250    1.244942
     14          7           0        1.089132    1.182186    0.529077
     15          6           0       -0.750235    0.716930   -0.908331
     16          1           0        0.016479    0.834776   -1.692787
     17          6           0       -1.723066   -0.345252   -1.408427
     18          1           0       -2.274525    0.006480   -2.288276
     19          6           0       -0.842186   -1.539154   -1.823836
     20          1           0       -0.043526   -1.222682   -2.506493
     21          1           0       -1.431251   -2.278818   -2.381603
     22          6           0       -0.242846   -2.165630   -0.563619
     23          1           0        0.387024   -3.013778   -0.859212
     24          7           0       -1.305289   -2.701448    0.333970
     25          6           0       -0.926128   -2.414642    1.725523
     26          1           0       -0.984710   -3.321914    2.335406
     27          1           0       -1.577375   -1.665499    2.191634
     28          6           0        0.495111   -1.878350    1.675206
     29          1           0        1.204101   -2.715501    1.727219
     30          1           0        0.710569   -1.211363    2.517471
     31          6           0        0.866650    2.551620    0.545774
     32          8           0        1.728123    3.421188    0.622156
     33          6           0       -1.302515    2.137626   -0.699986
     34          1           0       -1.026491    2.688569   -1.610358
     35          6           0       -0.620033    2.900475    0.457562
     36          1           0       -1.075401    2.688613    1.429702
     37          1           0       -0.730603    3.979009    0.296423
     38          8           0       -2.727877    2.192525   -0.712841
     39          6           0       -2.690763   -0.760554   -0.314405
     40          6           0       -3.407441    0.109563    0.424416
     41          6           0       -3.440524    1.609606    0.364288
     42          1           0       -4.486709    1.910187    0.238364
     43          1           0       -3.112950    2.031339    1.318771
     44          1           0       -4.036267   -0.294129    1.218004
     45          6           0       -2.667216   -2.241042    0.011056
     46          1           0       -3.352757   -2.492569    0.830478
     47          1           0       -3.045142   -2.803033   -0.852455
 ---------------------------------------------------------------------

 SCF Done:  E(RmPW1PW91) =  -1073.24368613     A.U. after   13 cycles

      1  H    Isotropic =    24.0588   Anisotropy =     9.8273

      2  C    Isotropic =    75.9381   Anisotropy =   166.3171

      3  C    Isotropic =    85.2876   Anisotropy =   152.0863

      4  C    Isotropic =    64.6401   Anisotropy =   138.0176

      5  C    Isotropic =    74.9937   Anisotropy =   165.6919

      6  C    Isotropic =    70.3237   Anisotropy =   170.7391

      7  C    Isotropic =    58.7009   Anisotropy =   115.8911

      8  H    Isotropic =    24.3282   Anisotropy =     4.4972

      9  H    Isotropic =    24.0909   Anisotropy =     3.9228

     10  H    Isotropic =    23.5442   Anisotropy =     8.4616

     11  C    Isotropic =   142.6726   Anisotropy =    23.4558

     12  C    Isotropic =   133.0934   Anisotropy =    32.9236

     13  H    Isotropic =    27.5480   Anisotropy =     2.9169

     14  N    Isotropic =   109.0968   Anisotropy =    85.9449

     15  C    Isotropic =   143.9692   Anisotropy =    33.6993

     16  H    Isotropic =    29.8608   Anisotropy =     3.1249

     17  C    Isotropic =   164.3754   Anisotropy =     7.4386

     18  H    Isotropic =    28.4674   Anisotropy =     9.5497

     19  C    Isotropic =   167.1550   Anisotropy =    13.7117

     20  H    Isotropic =    30.2224   Anisotropy =     7.7339

     21  H    Isotropic =    29.4051   Anisotropy =    11.4937

     22  C    Isotropic =   136.2180   Anisotropy =    34.9315

     23  H    Isotropic =    27.7322   Anisotropy =    10.2761

     24  N    Isotropic =   218.4408   Anisotropy =    56.5532

     25  C    Isotropic =   146.7923   Anisotropy =    56.2973

     26  H    Isotropic =    28.6711   Anisotropy =    11.9611

     27  H    Isotropic =    28.9262   Anisotropy =     6.4855

     28  C    Isotropic =   152.6749   Anisotropy =    43.6038

     29  H    Isotropic =    29.8115   Anisotropy =     9.8043

     30  H    Isotropic =    29.7625   Anisotropy =     7.1872

     31  C    Isotropic =    31.0189   Anisotropy =   100.1893

     32  O    Isotropic =   -66.2128   Anisotropy =   593.0431

     33  C    Isotropic =   124.1626   Anisotropy =    53.1155

     34  H    Isotropic =    27.0910   Anisotropy =     6.4787

     35  C    Isotropic =   160.9389   Anisotropy =    40.1437

     36  H    Isotropic =    28.3813   Anisotropy =     4.9331

     37  H    Isotropic =    29.2731   Anisotropy =     9.7631

     38  O    Isotropic =   297.2506   Anisotropy =    56.1101

     39  C    Isotropic =    60.6883   Anisotropy =   150.9641

     40  C    Isotropic =    71.1719   Anisotropy =   111.7153

     41  C    Isotropic =   132.7314   Anisotropy =    55.6054

     42  H    Isotropic =    27.3747   Anisotropy =     9.9747

     43  H    Isotropic =    27.1937   Anisotropy =     6.6626

     44  H    Isotropic =    26.3202   Anisotropy =     5.1477

     45  C    Isotropic =   142.4838   Anisotropy =    28.3397

     46  H    Isotropic =    29.0626   Anisotropy =     9.1650

     47  H    Isotropic =    28.1021   Anisotropy =    10.1618

 The electronic state is 1-A.
 Alpha  occ. eigenvalues --  -19.24104 -19.21311 -14.45357 -14.39880 -10.35565
 Alpha  occ. eigenvalues --  -10.29964 -10.28983 -10.28969 -10.28580 -10.27430
 Alpha  occ. eigenvalues --  -10.26736 -10.26432 -10.25676 -10.25581 -10.25112
 Alpha  occ. eigenvalues --  -10.25026 -10.24981 -10.24952 -10.24934 -10.24842
 Alpha  occ. eigenvalues --  -10.24595 -10.24571 -10.24027 -10.24017 -10.23872
 Alpha  occ. eigenvalues --   -1.06816  -1.05846  -0.99800  -0.95763  -0.88007
 Alpha  occ. eigenvalues --   -0.85430  -0.84019  -0.82192  -0.78905  -0.76880
 Alpha  occ. eigenvalues --   -0.76543  -0.75208  -0.73403  -0.71685  -0.68415
 Alpha  occ. eigenvalues --   -0.66128  -0.64556  -0.63681  -0.62031  -0.59350
 Alpha  occ. eigenvalues --   -0.58381  -0.56863  -0.55866  -0.52869  -0.52400
 Alpha  occ. eigenvalues --   -0.51830  -0.50776  -0.49548  -0.47976  -0.47890
 Alpha  occ. eigenvalues --   -0.47671  -0.46967  -0.46055  -0.45781  -0.45003
 Alpha  occ. eigenvalues --   -0.44342  -0.43932  -0.43423  -0.41970  -0.41768
 Alpha  occ. eigenvalues --   -0.40335  -0.39827  -0.39762  -0.39359  -0.38585
 Alpha  occ. eigenvalues --   -0.38171  -0.37728  -0.37018  -0.36785  -0.35750
 Alpha  occ. eigenvalues --   -0.35130  -0.34284  -0.33682  -0.33398  -0.33035
 Alpha  occ. eigenvalues --   -0.32122  -0.30894  -0.29847  -0.27151  -0.26070
 Alpha  occ. eigenvalues --   -0.25765  -0.24452  -0.21930  -0.21021
 Alpha virt. eigenvalues --   -0.00703   0.00095   0.02499   0.04673   0.09310
 Alpha virt. eigenvalues --    0.09627   0.11193   0.12034   0.12380   0.13221
 Alpha virt. eigenvalues --    0.13726   0.14121   0.14972   0.15338   0.15424

 Mulliken atomic charges:
              1
     1  H    0.155498
     2  C   -0.187403
     3  C   -0.153528
     4  C    0.032747
     5  C   -0.167347
     6  C   -0.168590
     7  C    0.315227
     8  H    0.146858
     9  H    0.153590
    10  H    0.166933
    11  C   -0.084244
    12  C    0.007829
    13  H    0.162209
    14  N   -0.601787
    15  C   -0.124486
    16  H    0.152310
    17  C   -0.160147
    18  H    0.157171
    19  C   -0.274926
    20  H    0.149764
    21  H    0.149217
    22  C    0.055395
    23  H    0.142607
    24  N   -0.487348
    25  C   -0.076610
    26  H    0.137123
    27  H    0.128151
    28  C   -0.263827
    29  H    0.150369
    30  H    0.151270
    31  C    0.592006
    32  O   -0.550792
    33  C    0.151495
    34  H    0.158169
    35  C   -0.369946
    36  H    0.185593
    37  H    0.175847
    38  O   -0.528904
    39  C    0.083960
    40  C   -0.195794
    41  C   -0.035284
    42  H    0.159692
    43  H    0.141039
    44  H    0.132822
    45  C   -0.161779
    46  H    0.150898
    47  H    0.146952
 Sum of Mulliken atomic charges =   0.00000

 Dipole moment (field-independent basis, Debye):
    X=             -2.7622    Y=             -3.3076    Z=              0.3894  Tot=              4.3269
 Quadrupole moment (field-independent basis, Debye-Ang):
   XX=           -141.8395   YY=           -156.9260   ZZ=           -139.6659
   XY=             -9.7318   XZ=             -9.3446   YZ=              0.8049

 Normal termination of Gaussian 09 at Sat Oct 16 12:09:17 2021.
