 Gaussian 09, Revision C.01,
 Gaussian 09:  EM64L-G09RevC.01 23-Sep-2011

 -----------------------------------------------------------------
 # mPW1PW91/6-31g** scrf=(pcm,solvent=chloroform,smd,dovacuum) nmr
 -----------------------------------------------------------------

 99/9=1/99;
 -------
 comment
 -------
 Charge =  0 Multiplicity = 1

                         Standard orientation:
 ---------------------------------------------------------------------
 Center     Atomic      Atomic             Coordinates (Angstroms)
 Number     Number       Type             X           Y           Z
 ---------------------------------------------------------------------
      1          1           0       -2.168425    3.072547    0.009161
      2          6           0       -1.511468    2.203624    0.007384
      3          6           0        0.162249   -0.002800    0.002877
      4          6           0       -2.064714    0.896887    0.003378
      5          6           0       -0.128099    2.408512    0.009134
      6          6           0        0.676023    1.287067    0.006803
      7          6           0       -1.210796   -0.228202    0.001080
      8          1           0        0.300451    3.405551    0.012196
      9          6           0       -3.448236    0.679755    0.001595
     10          1           0       -4.141400    1.516053    0.003252
     11          6           0       -3.939092   -0.625047   -0.002352
     12          6           0       -5.418912   -0.869589   -0.004292
     13          1           0       -5.873915   -0.426823   -0.895734
     14          1           0       -5.875459   -0.431640    0.888738
     15          1           0       -5.636824   -1.942448   -0.007376
     16          7           0       -3.132807   -1.711336   -0.004586
     17          6           0       -1.797685   -1.494467   -0.002845
     18          1           0       -1.192907   -2.397838   -0.004760
     19          6           0        2.128676    1.182924    0.007779
     20          8           0        2.907527    2.110065   -0.032261
     21          6           0        2.369505   -0.293803    0.004001
     22          6           0        3.550257   -0.940345    0.003278
     23          6           0        3.625940   -2.446132   -0.000721
     24          1           0        2.642625   -2.926057   -0.002867
     25          1           0        4.161118   -2.798913    0.887230
     26          1           0        4.162656   -2.794117   -0.889636
     27          6           0        4.899618   -0.273999    0.006244
     28          1           0        5.465077   -0.579432    0.893240
     29          1           0        4.860310    0.815275    0.009150
     30          1           0        5.466613   -0.574642   -0.881408
     31          8           0        1.142492   -0.968124    0.001119
 ---------------------------------------------------------------------

 SCF Done:  E(RmPW1PW91) =  -784.484904110     A.U. after   13 cycles

      1  H    Isotropic =    23.7660   Anisotropy =     6.7648

      2  C    Isotropic =    74.7112   Anisotropy =   144.0262

      3  C    Isotropic =    36.9149   Anisotropy =   123.1636

      4  C    Isotropic =    64.0717   Anisotropy =   201.1612

      5  C    Isotropic =    71.0849   Anisotropy =   177.3854

      6  C    Isotropic =    76.9363   Anisotropy =   138.6181

      7  C    Isotropic =    88.8559   Anisotropy =   164.6210

      8  H    Isotropic =    23.0992   Anisotropy =     6.2764

      9  C    Isotropic =    78.3518   Anisotropy =   135.5808

     10  H    Isotropic =    23.5588   Anisotropy =     9.5349

     11  C    Isotropic =    38.9102   Anisotropy =   175.4700

     12  C    Isotropic =   171.3047   Anisotropy =    40.6709

     13  H    Isotropic =    28.6331   Anisotropy =     7.9575

     14  H    Isotropic =    28.6334   Anisotropy =     7.9539

     15  H    Isotropic =    29.1996   Anisotropy =     8.5229

     16  N    Isotropic =   -52.4585   Anisotropy =   498.3804

     17  C    Isotropic =    46.9382   Anisotropy =   164.9331

     18  H    Isotropic =    21.6816   Anisotropy =     9.4777

     19  C    Isotropic =    20.7947   Anisotropy =   109.0732

     20  O    Isotropic =  -120.7133   Anisotropy =   782.2993

     21  C    Isotropic =    53.6794   Anisotropy =    81.9898

     22  C    Isotropic =    59.4002   Anisotropy =   160.6155

     23  C    Isotropic =   174.5314   Anisotropy =    29.6806

     24  H    Isotropic =    28.9279   Anisotropy =     8.4157

     25  H    Isotropic =    29.7594   Anisotropy =     8.6153

     26  H    Isotropic =    29.7543   Anisotropy =     8.6180

     27  C    Isotropic =   178.6534   Anisotropy =    26.6699

     28  H    Isotropic =    29.8728   Anisotropy =     8.7662

     29  H    Isotropic =    27.8964   Anisotropy =    10.3539

     30  H    Isotropic =    29.8625   Anisotropy =     8.7833

     31  O    Isotropic =   167.9240   Anisotropy =   149.1802

 The electronic state is 1-A.
 Alpha  occ. eigenvalues --  -19.30989 -19.22460 -14.41564 -10.33481 -10.33269
 Alpha  occ. eigenvalues --  -10.31094 -10.29523 -10.29454 -10.28736 -10.28098
 Alpha  occ. eigenvalues --  -10.27375 -10.26849 -10.25932 -10.25631 -10.25458
 Alpha  occ. eigenvalues --  -10.24259 -10.24044 -10.23561  -1.13904  -1.06730
 Alpha  occ. eigenvalues --   -0.97273  -0.90139  -0.84948  -0.82774  -0.81879
 Alpha  occ. eigenvalues --   -0.77791  -0.75783  -0.71758  -0.71513  -0.67755
 Alpha  occ. eigenvalues --   -0.66197  -0.63145  -0.60443  -0.57260  -0.54087
 Alpha  occ. eigenvalues --   -0.52743  -0.51142  -0.49723  -0.49003  -0.47995
 Alpha  occ. eigenvalues --   -0.46559  -0.45255  -0.45084  -0.44249  -0.43484
 Alpha  occ. eigenvalues --   -0.42543  -0.42009  -0.40654  -0.40223  -0.40208
 Alpha  occ. eigenvalues --   -0.39762  -0.39364  -0.38675  -0.37720  -0.36847
 Alpha  occ. eigenvalues --   -0.36807  -0.35636  -0.30600  -0.28559  -0.27949
 Alpha  occ. eigenvalues --   -0.26013  -0.25381  -0.22559
 Alpha virt. eigenvalues --   -0.07179  -0.05131   0.00101   0.03171   0.07985
 Alpha virt. eigenvalues --    0.11149   0.12385   0.12953   0.13046   0.14098
 Alpha virt. eigenvalues --    0.15651   0.16634   0.17262   0.17864   0.19029

 Mulliken atomic charges:
              1
     1  H    0.161389
     2  C   -0.201656
     3  C    0.296971
     4  C    0.124495
     5  C   -0.141522
     6  C   -0.015991
     7  C   -0.020798
     8  H    0.177016
     9  C   -0.206262
    10  H    0.162949
    11  C    0.259585
    12  C   -0.460043
    13  H    0.168949
    14  H    0.168944
    15  H    0.159142
    16  N   -0.550260
    17  C    0.079795
    18  H    0.177638
    19  C    0.390507
    20  O   -0.532458
    21  C    0.272256
    22  C    0.010279
    23  C   -0.451723
    24  H    0.164068
    25  H    0.171916
    26  H    0.171907
    27  C   -0.458836
    28  H    0.168963
    29  H    0.174732
    30  H    0.169227
    31  O   -0.591178
 Sum of Mulliken atomic charges =   0.00000

 Dipole moment (field-independent basis, Debye):
    X=             -0.4585    Y=             -0.6677    Z=              0.0872  Tot=              0.8146
 Quadrupole moment (field-independent basis, Debye-Ang):
   XX=            -84.8696   YY=           -102.9830   ZZ=           -104.0028
   XY=            -23.0206   XZ=              0.2263   YZ=              0.1847

 Normal termination of Gaussian 09 at Sat Oct 16 22:02:36 2021.
