 Gaussian 09, Revision C.01,
 Gaussian 09:  EM64L-G09RevC.01 23-Sep-2011

 -----------------------------------------------------------------
 # mPW1PW91/6-31g** scrf=(pcm,solvent=chloroform,smd,dovacuum) nmr
 -----------------------------------------------------------------

 99/9=1/99;
 -------
 comment
 -------
 Charge =  0 Multiplicity = 1

                         Standard orientation:
 ---------------------------------------------------------------------
 Center     Atomic      Atomic             Coordinates (Angstroms)
 Number     Number       Type             X           Y           Z
 ---------------------------------------------------------------------
      1          6           0       -1.478704    0.321302    0.547681
      2          6           0       -2.020726   -1.103399    0.758305
      3          6           0        2.080194    1.690059   -0.285723
      4          6           0        0.300534   -0.661692   -0.907397
      5          6           0        0.033755    0.252832    0.315017
      6          6           0        0.639770    1.681290    0.256857
      7          6           0       -0.238911    2.746313   -0.456050
      8          6           0       -1.366025    2.140751   -1.292795
      9          6           0       -2.214044    1.097089   -0.563938
     10          6           0       -3.534811   -1.117617    0.987429
     11          6           0        2.973945    0.584338    0.299535
     12          6           0       -0.814325    3.744676    0.559897
     13          6           0        2.426034   -0.841909    0.074473
     14          6           0        3.582472   -1.831464   -0.054124
     15          8           0        1.693310   -0.884543   -1.147080
     16          8           0       -0.366705   -1.937568   -0.839086
     17          1           0       -1.650425    0.858809    1.492047
     18          1           0       -1.566458   -1.524115    1.665806
     19          1           0        2.067768    1.606019   -1.380114
     20          1           0        2.540767    2.661884   -0.065833
     21          1           0       -0.065515   -0.204338   -1.828357
     22          1           0        0.750460    2.013248    1.301651
     23          1           0        0.388637    3.338841   -1.135187
     24          1           0       -0.925528    1.685289   -2.187217
     25          1           0       -2.023396    2.930166   -1.679089
     26          1           0       -3.083331    1.596204   -0.116244
     27          1           0       -2.622085    0.414269   -1.319227
     28          1           0       -3.867469   -2.114923    1.296878
     29          1           0       -4.090261   -0.862045    0.079161
     30          1           0       -3.817895   -0.414217    1.777319
     31          1           0        3.140838    0.762858    1.368668
     32          1           0        3.948176    0.687311   -0.195587
     33          1           0       -1.406566    4.515108    0.054508
     34          1           0       -0.007772    4.252162    1.100207
     35          1           0       -1.457881    3.254124    1.296534
     36          1           0        4.221683   -1.594042   -0.911233
     37          1           0        4.191658   -1.851225    0.855822
     38          1           0        3.200555   -2.847337   -0.210683
     39          6           0       -1.626558   -2.049948   -0.363730
     40          8           0       -2.364647   -2.945808   -0.761080
     41          8           0        0.624692   -0.304177    1.518442
     42          8           0        1.623154   -1.312874    1.164749
 ---------------------------------------------------------------------

 SCF Done:  E(RmPW1PW91) =  -960.709997810     A.U. after   13 cycles

      1  C    Isotropic =   156.0212   Anisotropy =    24.9969

      2  C    Isotropic =   158.3173   Anisotropy =    20.8219

      3  C    Isotropic =   166.6835   Anisotropy =    26.2250

      4  C    Isotropic =    96.5560   Anisotropy =    34.0553

      5  C    Isotropic =   113.1007   Anisotropy =    58.0415

      6  C    Isotropic =   143.6600   Anisotropy =    24.2067

      7  C    Isotropic =   161.2260   Anisotropy =    19.1141

      8  C    Isotropic =   172.1982   Anisotropy =    16.5576

      9  C    Isotropic =   174.1790   Anisotropy =    20.1495

     10  C    Isotropic =   180.4028   Anisotropy =    19.4586

     11  C    Isotropic =   157.1661   Anisotropy =    33.0605

     12  C    Isotropic =   170.4229   Anisotropy =    37.1805

     13  C    Isotropic =    90.6644   Anisotropy =    24.8099

     14  C    Isotropic =   169.6409   Anisotropy =    42.5008

     15  O    Isotropic =   218.2052   Anisotropy =   105.0331

     16  O    Isotropic =   109.8163   Anisotropy =   184.8350

     17  H    Isotropic =    29.4760   Anisotropy =     4.8561

     18  H    Isotropic =    28.3727   Anisotropy =     5.5857

     19  H    Isotropic =    29.8689   Anisotropy =     6.2684

     20  H    Isotropic =    30.0143   Anisotropy =     9.4836

     21  H    Isotropic =    25.6162   Anisotropy =     2.1530

     22  H    Isotropic =    29.7409   Anisotropy =     5.3679

     23  H    Isotropic =    29.9804   Anisotropy =     7.6986

     24  H    Isotropic =    29.9176   Anisotropy =     7.7197

     25  H    Isotropic =    30.2890   Anisotropy =    10.9370

     26  H    Isotropic =    29.5102   Anisotropy =     9.0571

     27  H    Isotropic =    30.2880   Anisotropy =     7.6225

     28  H    Isotropic =    30.1151   Anisotropy =    11.5650

     29  H    Isotropic =    30.5190   Anisotropy =     7.6477

     30  H    Isotropic =    31.1185   Anisotropy =     9.7937

     31  H    Isotropic =    29.2307   Anisotropy =     7.7212

     32  H    Isotropic =    29.4921   Anisotropy =     9.1139

     33  H    Isotropic =    30.8806   Anisotropy =    11.8781

     34  H    Isotropic =    30.5162   Anisotropy =    10.0369

     35  H    Isotropic =    30.4347   Anisotropy =     6.3321

     36  H    Isotropic =    30.1328   Anisotropy =     9.4725

     37  H    Isotropic =    30.2189   Anisotropy =     9.9412

     38  H    Isotropic =    30.3293   Anisotropy =     9.5830

     39  C    Isotropic =    22.2004   Anisotropy =    92.6174

     40  O    Isotropic =   -93.8317   Anisotropy =   601.7720

     41  O    Isotropic =    44.5736   Anisotropy =   343.9560

     42  O    Isotropic =    43.8700   Anisotropy =   224.1191

 The electronic state is 1-A.
 Alpha  occ. eigenvalues --  -19.30674 -19.30332 -19.28543 -19.26775 -19.22573
 Alpha  occ. eigenvalues --  -10.37929 -10.37279 -10.36131 -10.32171 -10.26196
 Alpha  occ. eigenvalues --  -10.26121 -10.25188 -10.24660 -10.24361 -10.24299
 Alpha  occ. eigenvalues --  -10.24041 -10.23926 -10.23702 -10.23130 -10.22718
 Alpha  occ. eigenvalues --   -1.16899  -1.13110  -1.08038  -1.03744  -0.96648
 Alpha  occ. eigenvalues --   -0.86998  -0.83342  -0.81410  -0.78136  -0.76906
 Alpha  occ. eigenvalues --   -0.74521  -0.71770  -0.69837  -0.67240  -0.66356
 Alpha  occ. eigenvalues --   -0.62943  -0.60665  -0.60063  -0.58156  -0.55451
 Alpha  occ. eigenvalues --   -0.54285  -0.53123  -0.50096  -0.49861  -0.47778
 Alpha  occ. eigenvalues --   -0.47572  -0.46720  -0.46348  -0.45420  -0.44570
 Alpha  occ. eigenvalues --   -0.43557  -0.43032  -0.42291  -0.41700  -0.41209
 Alpha  occ. eigenvalues --   -0.40816  -0.40576  -0.39707  -0.39537  -0.38752
 Alpha  occ. eigenvalues --   -0.37690  -0.37107  -0.36756  -0.36454  -0.35442
 Alpha  occ. eigenvalues --   -0.34624  -0.34240  -0.33756  -0.32921  -0.31985
 Alpha  occ. eigenvalues --   -0.31075  -0.30517  -0.30059  -0.28955  -0.27726
 Alpha  occ. eigenvalues --   -0.26473
 Alpha virt. eigenvalues --    0.00546   0.01465   0.08519   0.09151   0.10264
 Alpha virt. eigenvalues --    0.11640   0.12828   0.13575   0.14020   0.14294
 Alpha virt. eigenvalues --    0.14939   0.15625   0.16006   0.16617   0.17276

 Mulliken atomic charges:
              1
     1  C   -0.147053
     2  C   -0.219020
     3  C   -0.281728
     4  C    0.423552
     5  C    0.139710
     6  C   -0.065125
     7  C   -0.121741
     8  C   -0.270065
     9  C   -0.260106
    10  C   -0.400178
    11  C   -0.257788
    12  C   -0.414193
    13  C    0.465531
    14  C   -0.424449
    15  O   -0.537093
    16  O   -0.500046
    17  H    0.164415
    18  H    0.199250
    19  H    0.143937
    20  H    0.143726
    21  H    0.183551
    22  H    0.154006
    23  H    0.136449
    24  H    0.138112
    25  H    0.139663
    26  H    0.154177
    27  H    0.149070
    28  H    0.150461
    29  H    0.147770
    30  H    0.140337
    31  H    0.157275
    32  H    0.153760
    33  H    0.134005
    34  H    0.137794
    35  H    0.140049
    36  H    0.169121
    37  H    0.162872
    38  H    0.160181
    39  C    0.650700
    40  O   -0.511298
    41  O   -0.315362
    42  O   -0.314230
 Sum of Mulliken atomic charges =   0.00000

 Dipole moment (field-independent basis, Debye):
    X=              1.7648    Y=              6.7017    Z=              0.4630  Tot=              6.9456
 Quadrupole moment (field-independent basis, Debye-Ang):
   XX=           -110.2399   YY=           -129.4307   ZZ=           -120.6106
   XY=             -9.1640   XZ=             -4.0853   YZ=             -5.5826

 Normal termination of Gaussian 09 at Sat Oct 16 13:21:03 2021.
