 Gaussian 09, Revision C.01,
 Gaussian 09:  EM64L-G09RevC.01 23-Sep-2011

 -----------------------------------------------------
 # mPW1PW91/6-31+g** scrf=(PCM,solvent=chloroform) nmr
 -----------------------------------------------------

 99/9=1/99;
 -------
 comment
 -------
 Charge =  0 Multiplicity = 1

                         Standard orientation:
 ---------------------------------------------------------------------
 Center     Atomic      Atomic             Coordinates (Angstroms)
 Number     Number       Type             X           Y           Z
 ---------------------------------------------------------------------
      1          1           0       -0.515534   -1.441425    0.562760
      2          6           0       -0.524154   -0.572480   -0.111155
      3          6           0       -2.677663   -1.429218   -1.132178
      4          6           0       -2.731756    0.079353    0.942274
      5          6           0       -3.447772   -0.410358   -0.311959
      6          6           0       -1.295078    0.545387    0.617218
      7          6           0       -1.239288   -0.958899   -1.410930
      8          1           0       -3.213775   -1.615599   -2.068996
      9          1           0       -3.303633    0.919885    1.361189
     10          1           0       -0.785571    0.776844    1.565910
     11          1           0       -0.670634   -1.750545   -1.911460
     12          1           0       -2.654997   -2.374114   -0.572307
     13          1           0       -1.246595   -0.086186   -2.071704
     14          8           0       -4.121836    0.626851   -1.047628
     15          6           0       -4.919546   -0.346491   -0.364373
     16          8           0       -2.601069   -0.969680    1.906549
     17          1           0       -3.493870   -1.276215    2.130348
     18          8           0       -1.301154    1.679578   -0.228430
     19          6           0       -1.605311    2.906770    0.402382
     20          1           0       -2.659513    2.976398    0.706372
     21          1           0       -1.405535    3.692479   -0.330903
     22          1           0       -0.969607    3.073475    1.286303
     23          8           0        0.797274   -0.147791   -0.406728
     24         14           0        2.205038   -0.607603    0.382721
     25          6           0        2.071047   -0.257763    2.238698
     26          1           0        2.966434   -0.595938    2.774569
     27          1           0        1.213468   -0.782742    2.677481
     28          1           0        1.943026    0.811182    2.443544
     29          6           0        3.559636    0.453579   -0.447321
     30          6           0        2.500406   -2.462493    0.145993
     31          1           0        3.427838   -2.786886    0.633792
     32          1           0        2.568285   -2.729919   -0.914409
     33          1           0        1.683686   -3.050287    0.583411
     34          6           0        3.629836    0.122747   -1.954063
     35          1           0        3.923032   -0.919487   -2.132145
     36          1           0        4.376832    0.759624   -2.450399
     37          1           0        2.666551    0.290619   -2.447906
     38          6           0        4.933859    0.176736    0.198580
     39          1           0        5.236036   -0.872946    0.093033
     40          1           0        4.943461    0.422535    1.267937
     41          1           0        5.711850    0.787850   -0.281744
     42          6           0        3.208463    1.948297   -0.281634
     43          1           0        3.956803    2.575206   -0.788612
     44          1           0        3.193801    2.250168    0.773253
     45          1           0        2.227231    2.178164   -0.710568
     46          1           0       -5.464787   -1.040499   -1.005125
     47          1           0       -5.486603    0.032140    0.488997
 ---------------------------------------------------------------------

 SCF Done:  E(RmPW1PW91) =  -1140.62111343     A.U. after   13 cycles

      1  H    Isotropic =    27.3218   Anisotropy =     8.0382

      2  C    Isotropic =   126.8616   Anisotropy =    53.4739

      3  C    Isotropic =   166.9274   Anisotropy =    22.2055

      4  C    Isotropic =   122.1868   Anisotropy =    41.9641

      5  C    Isotropic =   137.2828   Anisotropy =    59.8524

      6  C    Isotropic =   113.3409   Anisotropy =    46.0580

      7  C    Isotropic =   167.2396   Anisotropy =    29.0958

      8  H    Isotropic =    30.5168   Anisotropy =    10.7016

      9  H    Isotropic =    27.9627   Anisotropy =     4.2997

     10  H    Isotropic =    28.1339   Anisotropy =     4.2873

     11  H    Isotropic =    30.1428   Anisotropy =     8.2421

     12  H    Isotropic =    29.1733   Anisotropy =     7.7056

     13  H    Isotropic =    29.2565   Anisotropy =     4.0799

     14  O    Isotropic =   296.6529   Anisotropy =   132.2967

     15  C    Isotropic =   147.4321   Anisotropy =    44.2482

     16  O    Isotropic =   293.3840   Anisotropy =    64.2498

     17  H    Isotropic =    30.5049   Anisotropy =    18.8952

     18  O    Isotropic =   316.7820   Anisotropy =    44.1737

     19  C    Isotropic =   139.2833   Anisotropy =    83.3118

     20  H    Isotropic =    28.0394   Anisotropy =     9.8344

     21  H    Isotropic =    27.8210   Anisotropy =    10.6545

     22  H    Isotropic =    28.5461   Anisotropy =     9.2015

     23  O    Isotropic =   284.6341   Anisotropy =    48.6607

     24  Si   Isotropic =   381.3920   Anisotropy =    40.6640

     25  C    Isotropic =   199.6367   Anisotropy =     7.7668

     26  H    Isotropic =    31.6965   Anisotropy =    10.9471

     27  H    Isotropic =    31.2641   Anisotropy =     8.5202

     28  H    Isotropic =    31.4285   Anisotropy =     8.1857

     29  C    Isotropic =   174.5359   Anisotropy =     7.8700

     30  C    Isotropic =   200.9022   Anisotropy =     9.8852

     31  H    Isotropic =    31.6790   Anisotropy =    10.8473

     32  H    Isotropic =    31.5436   Anisotropy =     9.2571

     33  H    Isotropic =    31.2978   Anisotropy =     8.7845

     34  C    Isotropic =   170.3308   Anisotropy =    38.1988

     35  H    Isotropic =    30.5850   Anisotropy =     8.8078

     36  H    Isotropic =    31.0451   Anisotropy =     9.7552

     37  H    Isotropic =    30.1793   Anisotropy =     7.6822

     38  C    Isotropic =   170.6996   Anisotropy =    39.3274

     39  H    Isotropic =    30.6862   Anisotropy =     9.4176

     40  H    Isotropic =    30.7186   Anisotropy =     8.9809

     41  H    Isotropic =    30.8559   Anisotropy =    10.2000

     42  C    Isotropic =   170.5283   Anisotropy =    37.9875

     43  H    Isotropic =    31.0299   Anisotropy =     9.5486

     44  H    Isotropic =    30.5584   Anisotropy =     8.0461

     45  H    Isotropic =    30.0401   Anisotropy =     8.5972

     46  H    Isotropic =    29.1503   Anisotropy =    11.3780

     47  H    Isotropic =    29.1079   Anisotropy =    10.7712

 The electronic state is 1-A.
 Alpha  occ. eigenvalues --  -66.30034 -19.26624 -19.26449 -19.25128 -19.22918
 Alpha  occ. eigenvalues --  -10.31617 -10.31096 -10.30384 -10.30247 -10.30201
 Alpha  occ. eigenvalues --  -10.28597 -10.25327 -10.24509 -10.24210 -10.23465
 Alpha  occ. eigenvalues --  -10.23047 -10.22976 -10.22235 -10.22218  -5.33454
 Alpha  occ. eigenvalues --   -3.67359  -3.67084  -3.67060  -1.11401  -1.07609
 Alpha  occ. eigenvalues --   -1.06454  -1.02803  -0.84186  -0.81951  -0.77537
 Alpha  occ. eigenvalues --   -0.74954  -0.72027  -0.70258  -0.70209  -0.69968
 Alpha  occ. eigenvalues --   -0.69280  -0.68724  -0.64456  -0.62365  -0.57554
 Alpha  occ. eigenvalues --   -0.56956  -0.54103  -0.53427  -0.52663  -0.50275
 Alpha  occ. eigenvalues --   -0.48478  -0.48133  -0.47590  -0.46281  -0.45532
 Alpha  occ. eigenvalues --   -0.44320  -0.44184  -0.43559  -0.43224  -0.42637
 Alpha  occ. eigenvalues --   -0.41730  -0.41396  -0.40990  -0.40121  -0.39930
 Alpha  occ. eigenvalues --   -0.39738  -0.39257  -0.38821  -0.38571  -0.38154
 Alpha  occ. eigenvalues --   -0.36967  -0.36018  -0.35635  -0.34239  -0.33557
 Alpha  occ. eigenvalues --   -0.33344  -0.32310  -0.31675  -0.31433  -0.30549
 Alpha  occ. eigenvalues --   -0.28660  -0.27628  -0.27128  -0.26838
 Alpha virt. eigenvalues --   -0.00297   0.00482   0.01138   0.01599   0.02293
 Alpha virt. eigenvalues --    0.02926   0.03188   0.03970   0.04216   0.04610
 Alpha virt. eigenvalues --    0.04954   0.05180   0.05679   0.05833   0.06301

 Mulliken atomic charges:
              1
     1  H    0.157229
     2  C   -0.389772
     3  C   -0.568522
     4  C    0.261351
     5  C   -0.189760
     6  C   -0.300506
     7  C   -0.144722
     8  H    0.173906
     9  H    0.147347
    10  H    0.145310
    11  H    0.169306
    12  H    0.182516
    13  H    0.195787
    14  O   -0.292401
    15  C    0.071506
    16  O   -0.512483
    17  H    0.387390
    18  O   -0.201358
    19  C   -0.167096
    20  H    0.150718
    21  H    0.167450
    22  H    0.147261
    23  O   -0.288898
    24  Si   0.810409
    25  C   -0.690598
    26  H    0.187130
    27  H    0.187515
    28  H    0.185644
    29  C    0.008216
    30  C   -0.688228
    31  H    0.186242
    32  H    0.186206
    33  H    0.182699
    34  C   -0.585629
    35  H    0.163529
    36  H    0.161217
    37  H    0.182927
    38  C   -0.548644
    39  H    0.166984
    40  H    0.167901
    41  H    0.165267
    42  C   -0.582026
    43  H    0.160693
    44  H    0.160938
    45  H    0.187912
    46  H    0.173984
    47  H    0.168154
 Sum of Mulliken atomic charges =   0.00000

 Dipole moment (field-independent basis, Debye):
    X=             -2.2303    Y=             -2.0036    Z=              2.7657  Tot=              4.0790
 Quadrupole moment (field-independent basis, Debye-Ang):
   XX=           -109.9072   YY=           -121.6275   ZZ=           -128.7127
   XY=              6.7311   XZ=             -7.1770   YZ=              5.4848

 Normal termination of Gaussian 09 at Tue Dec  6 21:05:39 2022.
