 Gaussian 09, Revision C.01,
 Gaussian 09:  EM64L-G09RevC.01 23-Sep-2011

 -----------------------------------------------------
 # mPW1PW91/6-31+g** scrf=(PCM,solvent=chloroform) nmr
 -----------------------------------------------------

 99/9=1/99;
 -------
 comment
 -------
 Charge =  0 Multiplicity = 1

                         Standard orientation:
 ---------------------------------------------------------------------
 Center     Atomic      Atomic             Coordinates (Angstroms)
 Number     Number       Type             X           Y           Z
 ---------------------------------------------------------------------
      1          1           0       -0.738980   -1.393828    1.447699
      2          6           0       -0.526653   -0.740640    0.592737
      3          6           0       -2.485559   -1.821719   -0.593456
      4          6           0       -2.848550    0.187493    0.954889
      5          6           0       -3.328693   -0.606279   -0.255174
      6          6           0       -1.347768    0.539096    0.831452
      7          6           0       -0.993078   -1.457012   -0.685450
      8          1           0       -2.838746   -2.255868   -1.534929
      9          1           0       -3.438213    1.113158    1.019952
     10          1           0       -1.025859    1.006495    1.775204
     11          1           0       -0.390074   -2.361358   -0.822869
     12          1           0       -2.634202   -2.572643    0.193932
     13          1           0       -0.827556   -0.809936   -1.551917
     14          8           0       -3.746202    0.213665   -1.363928
     15          6           0       -4.746014   -0.523516   -0.649548
     16          8           0       -2.978584   -0.571888    2.158416
     17          1           0       -3.917576   -0.788328    2.270135
     18          8           0       -1.097736    1.415532   -0.256506
     19          6           0       -1.634466    2.722097   -0.138644
     20          1           0       -2.712301    2.740614   -0.342897
     21          1           0       -1.128570    3.337143   -0.887661
     22          1           0       -1.444734    3.147400    0.858602
     23          8           0        0.868684   -0.522061    0.617215
     24         14           0        1.997807    0.421620   -0.187754
     25          6           0        1.641141    0.612704   -2.034142
     26          1           0        2.414127    1.225960   -2.513993
     27          1           0        0.677586    1.109727   -2.182376
     28          1           0        1.609410   -0.349728   -2.556965
     29          6           0        3.633485   -0.544035    0.093607
     30          6           0        2.120983    2.136910    0.602153
     31          1           0        3.000610    2.680217    0.235032
     32          1           0        2.203632    2.071646    1.693148
     33          1           0        1.237796    2.739492    0.367707
     34          6           0        3.932236   -0.638588    1.605319
     35          1           0        4.074762    0.351164    2.056322
     36          1           0        4.854578   -1.212515    1.780317
     37          1           0        3.120404   -1.138898    2.144777
     38          6           0        4.806820    0.174496   -0.607330
     39          1           0        4.952100    1.194645   -0.230406
     40          1           0        4.662715    0.236295   -1.693241
     41          1           0        5.746939   -0.370252   -0.435688
     42          6           0        3.508674   -1.972421   -0.477452
     43          1           0        4.436229   -2.538409   -0.304831
     44          1           0        3.328899   -1.967745   -1.560000
     45          1           0        2.688826   -2.523134   -0.003299
     46          1           0       -5.199438   -1.349658   -1.198196
     47          1           0       -5.446313    0.082168   -0.070348
 ---------------------------------------------------------------------

 SCF Done:  E(RmPW1PW91) =  -1140.61831508     A.U. after   13 cycles

      1  H    Isotropic =    27.0625   Anisotropy =     6.9043

      2  C    Isotropic =   123.0956   Anisotropy =    59.3461

      3  C    Isotropic =   165.4286   Anisotropy =    22.2428

      4  C    Isotropic =   121.5591   Anisotropy =    38.4419

      5  C    Isotropic =   137.3896   Anisotropy =    60.2843

      6  C    Isotropic =   113.1137   Anisotropy =    46.8552

      7  C    Isotropic =   166.9192   Anisotropy =    26.3141

      8  H    Isotropic =    30.5695   Anisotropy =    10.5016

      9  H    Isotropic =    27.9167   Anisotropy =     3.8150

     10  H    Isotropic =    27.9077   Anisotropy =     3.2080

     11  H    Isotropic =    29.9677   Anisotropy =     8.2714

     12  H    Isotropic =    29.2115   Anisotropy =     8.2725

     13  H    Isotropic =    29.2936   Anisotropy =     6.1102

     14  O    Isotropic =   298.6260   Anisotropy =   131.5291

     15  C    Isotropic =   146.5458   Anisotropy =    43.1548

     16  O    Isotropic =   292.8212   Anisotropy =    63.1099

     17  H    Isotropic =    30.4370   Anisotropy =    19.1290

     18  O    Isotropic =   312.6572   Anisotropy =    48.5218

     19  C    Isotropic =   140.2193   Anisotropy =    79.9166

     20  H    Isotropic =    27.9239   Anisotropy =     9.1155

     21  H    Isotropic =    27.8337   Anisotropy =     9.9023

     22  H    Isotropic =    28.6192   Anisotropy =     9.6595

     23  O    Isotropic =   280.5938   Anisotropy =    55.5729

     24  Si   Isotropic =   383.7534   Anisotropy =    30.8897

     25  C    Isotropic =   197.9973   Anisotropy =     7.1358

     26  H    Isotropic =    31.7126   Anisotropy =    10.5355

     27  H    Isotropic =    30.8512   Anisotropy =     9.4906

     28  H    Isotropic =    31.4220   Anisotropy =     7.8392

     29  C    Isotropic =   172.6352   Anisotropy =     7.9138

     30  C    Isotropic =   198.3362   Anisotropy =     7.9340

     31  H    Isotropic =    31.6507   Anisotropy =    10.4882

     32  H    Isotropic =    31.4802   Anisotropy =     8.4819

     33  H    Isotropic =    31.3236   Anisotropy =     9.9067

     34  C    Isotropic =   170.1287   Anisotropy =    38.5640

     35  H    Isotropic =    30.5744   Anisotropy =     8.4242

     36  H    Isotropic =    31.0744   Anisotropy =     9.8894

     37  H    Isotropic =    30.2582   Anisotropy =     7.7178

     38  C    Isotropic =   170.0200   Anisotropy =    39.4974

     39  H    Isotropic =    30.6956   Anisotropy =     8.8428

     40  H    Isotropic =    30.7569   Anisotropy =     8.6418

     41  H    Isotropic =    30.9631   Anisotropy =    10.1535

     42  C    Isotropic =   170.1394   Anisotropy =    37.9248

     43  H    Isotropic =    31.0662   Anisotropy =     9.8062

     44  H    Isotropic =    30.5809   Anisotropy =     7.9730

     45  H    Isotropic =    30.2719   Anisotropy =     7.6707

     46  H    Isotropic =    29.0730   Anisotropy =    11.4956

     47  H    Isotropic =    29.0421   Anisotropy =    10.9669

 The electronic state is 1-A.
 Alpha  occ. eigenvalues --  -66.29936 -19.26779 -19.26498 -19.25608 -19.22782
 Alpha  occ. eigenvalues --  -10.31738 -10.31279 -10.30513 -10.30415 -10.30261
 Alpha  occ. eigenvalues --  -10.28856 -10.25419 -10.24329 -10.24057 -10.23193
 Alpha  occ. eigenvalues --  -10.22855 -10.22834 -10.21610 -10.21580  -5.33232
 Alpha  occ. eigenvalues --   -3.67155  -3.66859  -3.66841  -1.11495  -1.07775
 Alpha  occ. eigenvalues --   -1.06604  -1.02608  -0.84281  -0.81665  -0.77699
 Alpha  occ. eigenvalues --   -0.75049  -0.71676  -0.70595  -0.69895  -0.69742
 Alpha  occ. eigenvalues --   -0.68884  -0.68827  -0.64512  -0.62749  -0.58133
 Alpha  occ. eigenvalues --   -0.56569  -0.54574  -0.53895  -0.51329  -0.50332
 Alpha  occ. eigenvalues --   -0.48627  -0.48464  -0.47633  -0.46491  -0.44457
 Alpha  occ. eigenvalues --   -0.44219  -0.44081  -0.43508  -0.43369  -0.42967
 Alpha  occ. eigenvalues --   -0.42129  -0.41374  -0.40615  -0.40268  -0.39625
 Alpha  occ. eigenvalues --   -0.39322  -0.38913  -0.38496  -0.38308  -0.38095
 Alpha  occ. eigenvalues --   -0.36783  -0.36307  -0.35783  -0.34264  -0.33343
 Alpha  occ. eigenvalues --   -0.33120  -0.32175  -0.31776  -0.31434  -0.30069
 Alpha  occ. eigenvalues --   -0.28543  -0.27749  -0.27568  -0.26028
 Alpha virt. eigenvalues --    0.00017   0.00327   0.01265   0.01525   0.02326
 Alpha virt. eigenvalues --    0.02861   0.03171   0.04071   0.04357   0.04545
 Alpha virt. eigenvalues --    0.04875   0.05219   0.05772   0.06095   0.06468

 Mulliken atomic charges:
              1
     1  H    0.171166
     2  C   -0.133953
     3  C   -0.673156
     4  C    0.208023
     5  C   -0.010875
     6  C   -0.285738
     7  C   -0.156996
     8  H    0.173323
     9  H    0.150281
    10  H    0.155171
    11  H    0.171652
    12  H    0.185563
    13  H    0.192499
    14  O   -0.302248
    15  C    0.064192
    16  O   -0.521433
    17  H    0.385629
    18  O   -0.257779
    19  C   -0.210293
    20  H    0.163148
    21  H    0.167829
    22  H    0.151229
    23  O   -0.378125
    24  Si   0.784208
    25  C   -0.705292
    26  H    0.180854
    27  H    0.207416
    28  H    0.182565
    29  C   -0.004970
    30  C   -0.743141
    31  H    0.178006
    32  H    0.182188
    33  H    0.187824
    34  C   -0.583477
    35  H    0.164089
    36  H    0.158699
    37  H    0.178519
    38  C   -0.536283
    39  H    0.163599
    40  H    0.166831
    41  H    0.162485
    42  C   -0.574134
    43  H    0.158924
    44  H    0.161834
    45  H    0.176919
    46  H    0.174295
    47  H    0.168933
 Sum of Mulliken atomic charges =   0.00000

 Dipole moment (field-independent basis, Debye):
    X=             -4.0102    Y=              0.0934    Z=              0.7092  Tot=              4.0735
 Quadrupole moment (field-independent basis, Debye-Ang):
   XX=           -108.2065   YY=           -119.9133   ZZ=           -132.8805
   XY=              5.7609   XZ=             -8.6747   YZ=              3.4822

 Normal termination of Gaussian 09 at Tue Dec  6 21:54:46 2022.
