 Gaussian 09, Revision C.01,
 Gaussian 09:  EM64L-G09RevC.01 23-Sep-2011

 -----------------------------------------------------
 # mPW1PW91/6-31+g** scrf=(PCM,solvent=chloroform) nmr
 -----------------------------------------------------

 99/9=1/99;
 -------
 comment
 -------
 Charge =  0 Multiplicity = 1

                         Standard orientation:
 ---------------------------------------------------------------------
 Center     Atomic      Atomic             Coordinates (Angstroms)
 Number     Number       Type             X           Y           Z
 ---------------------------------------------------------------------
      1          1           0       -0.210357    1.183716    1.847912
      2          6           0       -0.587796    0.422113    1.148410
      3          6           0       -1.958049   -1.713326    1.001330
      4          6           0       -2.206125    0.072196   -0.793748
      5          6           0       -2.875917   -1.053935   -0.016510
      6          6           0       -1.595077    1.083369    0.190724
      7          6           0       -1.308788   -0.682164    1.940254
      8          1           0       -1.171202   -2.252834    0.460599
      9          1           0       -1.390709   -0.361185   -1.392358
     10          1           0       -2.419702    1.501167    0.791252
     11          1           0       -2.074295   -0.217820    2.577563
     12          1           0       -2.523706   -2.457913    1.571439
     13          1           0       -0.590495   -1.173870    2.605396
     14          8           0       -3.686430   -1.951460   -0.780525
     15          6           0       -4.339042   -1.071216    0.150701
     16          8           0       -3.143042    0.724501   -1.632309
     17          1           0       -2.672316    1.507459   -1.964568
     18          8           0       -1.024570    2.123504   -0.602532
     19          6           0       -1.049131    3.404657    0.003314
     20          1           0       -2.078250    3.720166    0.232655
     21          1           0       -0.611753    4.103275   -0.714554
     22          1           0       -0.457615    3.438596    0.928941
     23          8           0        0.480570   -0.143831    0.400780
     24         14           0        2.122130    0.203475    0.528358
     25          6           0        2.431081    2.056859    0.316804
     26          1           0        3.505119    2.279139    0.311753
     27          1           0        1.988639    2.630296    1.140594
     28          1           0        1.999436    2.430131   -0.617490
     29          6           0        2.936461   -0.818902   -0.865439
     30          6           0        2.745891   -0.315783    2.239387
     31          1           0        3.809832   -0.081346    2.366781
     32          1           0        2.617223   -1.390289    2.412273
     33          1           0        2.202593    0.212580    3.033185
     34          6           0        2.587514   -2.313459   -0.696845
     35          1           0        2.957948   -2.717951    0.253292
     36          1           0        3.045375   -2.904804   -1.503089
     37          1           0        1.505677   -2.481190   -0.734079
     38          6           0        4.470835   -0.649791   -0.810985
     39          1           0        4.891335   -0.998011    0.140606
     40          1           0        4.777277    0.394480   -0.950596
     41          1           0        4.946593   -1.236071   -1.610226
     42          6           0        2.423387   -0.336727   -2.239470
     43          1           0        1.335584   -0.435892   -2.322756
     44          1           0        2.875794   -0.932259   -3.045741
     45          1           0        2.679014    0.713219   -2.427049
     46          1           0       -4.771362   -1.558784    1.026147
     47          1           0       -4.939190   -0.287723   -0.305762
 ---------------------------------------------------------------------

 SCF Done:  E(RmPW1PW91) =  -1140.62603810     A.U. after   13 cycles

      1  H    Isotropic =    27.2426   Anisotropy =     4.2206

      2  C    Isotropic =   129.2571   Anisotropy =    50.9145

      3  C    Isotropic =   166.6820   Anisotropy =    32.2596

      4  C    Isotropic =   127.2376   Anisotropy =    39.9822

      5  C    Isotropic =   135.0176   Anisotropy =    60.5907

      6  C    Isotropic =   108.0293   Anisotropy =    39.6723

      7  C    Isotropic =   165.0687   Anisotropy =    20.2808

      8  H    Isotropic =    29.0996   Anisotropy =     6.3551

      9  H    Isotropic =    27.2661   Anisotropy =     6.7381

     10  H    Isotropic =    28.7349   Anisotropy =     3.7457

     11  H    Isotropic =    30.0060   Anisotropy =     9.3802

     12  H    Isotropic =    30.5724   Anisotropy =    10.6078

     13  H    Isotropic =    29.7446   Anisotropy =     8.5151

     14  O    Isotropic =   308.8874   Anisotropy =   109.4439

     15  C    Isotropic =   146.9020   Anisotropy =    35.2303

     16  O    Isotropic =   312.0274   Anisotropy =    33.4138

     17  H    Isotropic =    29.2435   Anisotropy =    17.9742

     18  O    Isotropic =   312.3611   Anisotropy =    62.4809

     19  C    Isotropic =   138.5964   Anisotropy =    81.8183

     20  H    Isotropic =    28.4729   Anisotropy =    10.5262

     21  H    Isotropic =    27.9398   Anisotropy =    10.1930

     22  H    Isotropic =    28.0469   Anisotropy =     8.1912

     23  O    Isotropic =   288.3311   Anisotropy =    25.8887

     24  Si   Isotropic =   379.8400   Anisotropy =    38.6301

     25  C    Isotropic =   199.5810   Anisotropy =    10.7838

     26  H    Isotropic =    31.6441   Anisotropy =    10.8695

     27  H    Isotropic =    31.3498   Anisotropy =     8.1124

     28  H    Isotropic =    31.2741   Anisotropy =     8.1194

     29  C    Isotropic =   173.0997   Anisotropy =     7.8960

     30  C    Isotropic =   199.9700   Anisotropy =     8.2027

     31  H    Isotropic =    31.6807   Anisotropy =    10.8609

     32  H    Isotropic =    31.4476   Anisotropy =     8.9009

     33  H    Isotropic =    31.4410   Anisotropy =     8.6384

     34  C    Isotropic =   170.3271   Anisotropy =    37.2379

     35  H    Isotropic =    30.5146   Anisotropy =     8.4416

     36  H    Isotropic =    30.9338   Anisotropy =     9.7403

     37  H    Isotropic =    30.1637   Anisotropy =     8.4604

     38  C    Isotropic =   170.2643   Anisotropy =    39.4509

     39  H    Isotropic =    30.6731   Anisotropy =     9.2326

     40  H    Isotropic =    30.6909   Anisotropy =     9.1164

     41  H    Isotropic =    30.8933   Anisotropy =    10.1761

     42  C    Isotropic =   170.0997   Anisotropy =    36.9900

     43  H    Isotropic =    30.1474   Anisotropy =     8.4868

     44  H    Isotropic =    30.9558   Anisotropy =     9.6343

     45  H    Isotropic =    30.5191   Anisotropy =     7.9712

     46  H    Isotropic =    29.0739   Anisotropy =    10.8085

     47  H    Isotropic =    28.2803   Anisotropy =     8.6284

 The electronic state is 1-A.
 Alpha  occ. eigenvalues --  -66.30374 -19.26430 -19.25994 -19.25077 -19.23441
 Alpha  occ. eigenvalues --  -10.31353 -10.31193 -10.30718 -10.30436 -10.29535
 Alpha  occ. eigenvalues --  -10.29443 -10.25450 -10.25229 -10.24747 -10.23614
 Alpha  occ. eigenvalues --  -10.23235 -10.23171 -10.22426 -10.22349  -5.33774
 Alpha  occ. eigenvalues --   -3.67687  -3.67398  -3.67376  -1.10962  -1.08457
 Alpha  occ. eigenvalues --   -1.05320  -1.03392  -0.84845  -0.82150  -0.77611
 Alpha  occ. eigenvalues --   -0.75132  -0.72217  -0.70865  -0.70377  -0.70123
 Alpha  occ. eigenvalues --   -0.69461  -0.68462  -0.64185  -0.62039  -0.58530
 Alpha  occ. eigenvalues --   -0.56296  -0.54673  -0.52918  -0.52451  -0.50583
 Alpha  occ. eigenvalues --   -0.49474  -0.48301  -0.47551  -0.46747  -0.45522
 Alpha  occ. eigenvalues --   -0.45012  -0.44523  -0.44041  -0.43846  -0.42790
 Alpha  occ. eigenvalues --   -0.41888  -0.41077  -0.40940  -0.40204  -0.40084
 Alpha  occ. eigenvalues --   -0.39542  -0.38943  -0.38811  -0.38696  -0.37944
 Alpha  occ. eigenvalues --   -0.37142  -0.36612  -0.35384  -0.34743  -0.34011
 Alpha  occ. eigenvalues --   -0.33675  -0.32836  -0.32103  -0.31601  -0.29972
 Alpha  occ. eigenvalues --   -0.28749  -0.28260  -0.27482  -0.26892
 Alpha virt. eigenvalues --   -0.00445   0.00860   0.01063   0.01536   0.02625
 Alpha virt. eigenvalues --    0.02819   0.03275   0.03500   0.03914   0.04795
 Alpha virt. eigenvalues --    0.05211   0.05306   0.05463   0.06121   0.06285

 Mulliken atomic charges:
              1
     1  H    0.137187
     2  C    0.140696
     3  C   -0.147375
     4  C   -0.056897
     5  C   -0.316733
     6  C   -0.124351
     7  C   -0.476640
     8  H    0.193127
     9  H    0.178495
    10  H    0.151727
    11  H    0.173686
    12  H    0.168477
    13  H    0.173904
    14  O   -0.327697
    15  C   -0.097360
    16  O   -0.523044
    17  H    0.391569
    18  O   -0.274621
    19  C   -0.132543
    20  H    0.157557
    21  H    0.171770
    22  H    0.153737
    23  O   -0.209383
    24  Si   0.589547
    25  C   -0.678650
    26  H    0.186336
    27  H    0.178943
    28  H    0.195282
    29  C    0.007285
    30  C   -0.691880
    31  H    0.188543
    32  H    0.185688
    33  H    0.180868
    34  C   -0.580194
    35  H    0.163483
    36  H    0.162947
    37  H    0.178705
    38  C   -0.553808
    39  H    0.168942
    40  H    0.166809
    41  H    0.166911
    42  C   -0.573653
    43  H    0.177066
    44  H    0.162979
    45  H    0.164646
    46  H    0.165239
    47  H    0.182678
 Sum of Mulliken atomic charges =   0.00000

 Dipole moment (field-independent basis, Debye):
    X=              2.2980    Y=              3.7064    Z=              4.5884  Tot=              6.3302
 Quadrupole moment (field-independent basis, Debye-Ang):
   XX=           -131.9920   YY=           -122.5751   ZZ=           -126.1902
   XY=             -8.1613   XZ=            -12.4213   YZ=             -3.3271

 Normal termination of Gaussian 09 at Tue Dec  6 21:03:30 2022.
