 Gaussian 09, Revision C.01,
 Gaussian 09:  EM64L-G09RevC.01 23-Sep-2011

 -----------------------------------------------------
 # mPW1PW91/6-31+g** scrf=(PCM,solvent=chloroform) nmr
 -----------------------------------------------------

 99/9=1/99;
 -------
 comment
 -------
 Charge =  0 Multiplicity = 1

                         Standard orientation:
 ---------------------------------------------------------------------
 Center     Atomic      Atomic             Coordinates (Angstroms)
 Number     Number       Type             X           Y           Z
 ---------------------------------------------------------------------
      1          1           0       -0.217424   -0.715289    0.847532
      2          6           0       -0.445069   -0.077022   -0.017563
      3          6           0       -2.254814   -1.717808   -0.661638
      4          6           0       -2.758151    0.205572    0.962841
      5          6           0       -3.294585   -0.781497   -0.070975
      6          6           0       -1.505246    0.942342    0.451236
      7          6           0       -1.013477   -0.946296   -1.144080
      8          1           0       -2.707281   -2.280345   -1.485181
      9          1           0       -3.533342    0.956250    1.169900
     10          1           0       -1.093122    1.537460    1.280854
     11          1           0       -0.244994   -1.645833   -1.491521
     12          1           0       -1.959414   -2.441798    0.109953
     13          1           0       -1.276366   -0.296151   -1.985081
     14          8           0       -4.252092   -0.236702   -0.993533
     15          6           0       -4.715745   -1.170956   -0.013970
     16          8           0       -2.361692   -0.481392    2.153907
     17          1           0       -3.134611   -0.968753    2.479548
     18          8           0       -1.958286    1.791079   -0.588807
     19          6           0       -1.192489    2.962219   -0.820069
     20          1           0       -1.012290    3.510727    0.118313
     21          1           0       -1.789384    3.592751   -1.485635
     22          1           0       -0.229210    2.740402   -1.289973
     23          8           0        0.730277    0.597925   -0.462115
     24         14           0        2.257379    0.590675    0.242345
     25          6           0        3.103464    2.110299   -0.485221
     26          1           0        4.126398    2.228315   -0.109017
     27          1           0        2.545957    3.016673   -0.222055
     28          1           0        3.151688    2.058774   -1.578634
     29          6           0        3.224438   -1.009877   -0.206824
     30          6           0        2.108093    0.767750    2.121726
     31          1           0        3.095429    0.767114    2.599240
     32          1           0        1.522167   -0.038362    2.578067
     33          1           0        1.619082    1.714662    2.379921
     34          6           0        2.550871   -2.252892    0.414070
     35          1           0        2.503917   -2.193173    1.508283
     36          1           0        3.118275   -3.161000    0.162082
     37          1           0        1.529594   -2.397704    0.041824
     38          6           0        4.667656   -0.909998    0.334776
     39          1           0        4.692438   -0.800918    1.426095
     40          1           0        5.213545   -0.063524   -0.099145
     41          1           0        5.232078   -1.820964    0.087484
     42          6           0        3.274241   -1.179884   -1.740140
     43          1           0        3.811984   -2.101299   -2.008213
     44          1           0        3.794632   -0.346238   -2.227020
     45          1           0        2.270188   -1.242340   -2.174929
     46          1           0       -5.021656   -2.144946   -0.398514
     47          1           0       -5.372365   -0.752926    0.752365
 ---------------------------------------------------------------------

 SCF Done:  E(RmPW1PW91) =  -1140.61970912     A.U. after   13 cycles

      1  H    Isotropic =    27.1658   Anisotropy =     8.8448

      2  C    Isotropic =   121.9550   Anisotropy =    53.9885

      3  C    Isotropic =   165.5519   Anisotropy =    23.5719

      4  C    Isotropic =   115.7015   Anisotropy =    27.9134

      5  C    Isotropic =   137.2457   Anisotropy =    61.0898

      6  C    Isotropic =   113.4290   Anisotropy =    47.7303

      7  C    Isotropic =   167.2109   Anisotropy =    28.2456

      8  H    Isotropic =    30.5742   Anisotropy =    10.1765

      9  H    Isotropic =    28.3416   Anisotropy =     5.1203

     10  H    Isotropic =    28.0018   Anisotropy =     2.0365

     11  H    Isotropic =    29.8103   Anisotropy =     9.5490

     12  H    Isotropic =    29.2020   Anisotropy =     6.9252

     13  H    Isotropic =    29.0815   Anisotropy =     4.0078

     14  O    Isotropic =   294.8028   Anisotropy =   132.1485

     15  C    Isotropic =   147.8271   Anisotropy =    44.2686

     16  O    Isotropic =   288.8639   Anisotropy =    71.4660

     17  H    Isotropic =    30.6190   Anisotropy =    18.8788

     18  O    Isotropic =   313.6011   Anisotropy =    46.1750

     19  C    Isotropic =   135.3298   Anisotropy =    85.0265

     20  H    Isotropic =    28.2792   Anisotropy =     8.7791

     21  H    Isotropic =    27.8369   Anisotropy =    10.8994

     22  H    Isotropic =    27.1994   Anisotropy =     7.2215

     23  O    Isotropic =   278.2381   Anisotropy =    41.3330

     24  Si   Isotropic =   377.9361   Anisotropy =    37.6287

     25  C    Isotropic =   198.8506   Anisotropy =     7.2754

     26  H    Isotropic =    31.6361   Anisotropy =    10.7053

     27  H    Isotropic =    31.5483   Anisotropy =     9.5753

     28  H    Isotropic =    31.2743   Anisotropy =     8.8676

     29  C    Isotropic =   171.5434   Anisotropy =     7.7695

     30  C    Isotropic =   201.3315   Anisotropy =     7.9089

     31  H    Isotropic =    31.5292   Anisotropy =    10.7887

     32  H    Isotropic =    31.0080   Anisotropy =     7.7761

     33  H    Isotropic =    31.5412   Anisotropy =     9.8217

     34  C    Isotropic =   170.1837   Anisotropy =    38.1882

     35  H    Isotropic =    30.4377   Anisotropy =     7.4166

     36  H    Isotropic =    30.9225   Anisotropy =     9.4328

     37  H    Isotropic =    30.3969   Anisotropy =     9.4465

     38  C    Isotropic =   169.3404   Anisotropy =    40.2790

     39  H    Isotropic =    30.6815   Anisotropy =     8.7343

     40  H    Isotropic =    30.7017   Anisotropy =     9.1783

     41  H    Isotropic =    30.9888   Anisotropy =    10.0054

     42  C    Isotropic =   170.3316   Anisotropy =    36.9625

     43  H    Isotropic =    30.9949   Anisotropy =     9.5828

     44  H    Isotropic =    30.5429   Anisotropy =     8.7395

     45  H    Isotropic =    30.2503   Anisotropy =     7.8454

     46  H    Isotropic =    29.1628   Anisotropy =    11.1743

     47  H    Isotropic =    29.1347   Anisotropy =    10.9928

 The electronic state is 1-A.
 Alpha  occ. eigenvalues --  -66.30360 -19.26541 -19.26362 -19.25024 -19.23315
 Alpha  occ. eigenvalues --  -10.31610 -10.31070 -10.30329 -10.30251 -10.30204
 Alpha  occ. eigenvalues --  -10.28087 -10.25382 -10.24768 -10.24374 -10.23635
 Alpha  occ. eigenvalues --  -10.23626 -10.23336 -10.22428 -10.22268  -5.33755
 Alpha  occ. eigenvalues --   -3.67664  -3.67397  -3.67346  -1.11405  -1.07420
 Alpha  occ. eigenvalues --   -1.06279  -1.02871  -0.84287  -0.82273  -0.77829
 Alpha  occ. eigenvalues --   -0.74809  -0.72108  -0.70588  -0.70235  -0.69628
 Alpha  occ. eigenvalues --   -0.69501  -0.68683  -0.64693  -0.62259  -0.57431
 Alpha  occ. eigenvalues --   -0.57174  -0.53998  -0.53682  -0.52778  -0.50323
 Alpha  occ. eigenvalues --   -0.48494  -0.47900  -0.47782  -0.46539  -0.45232
 Alpha  occ. eigenvalues --   -0.44719  -0.44567  -0.43627  -0.43438  -0.42681
 Alpha  occ. eigenvalues --   -0.41446  -0.41206  -0.40856  -0.40178  -0.40051
 Alpha  occ. eigenvalues --   -0.39849  -0.39306  -0.38998  -0.38890  -0.37623
 Alpha  occ. eigenvalues --   -0.37279  -0.35979  -0.35750  -0.34885  -0.33854
 Alpha  occ. eigenvalues --   -0.33595  -0.32561  -0.31855  -0.31063  -0.30836
 Alpha  occ. eigenvalues --   -0.29548  -0.28308  -0.27526  -0.25371
 Alpha virt. eigenvalues --   -0.00248   0.00543   0.01291   0.01575   0.02099
 Alpha virt. eigenvalues --    0.02894   0.03205   0.03898   0.04220   0.04521
 Alpha virt. eigenvalues --    0.04768   0.05097   0.05462   0.06416   0.06503

 Mulliken atomic charges:
              1
     1  H    0.156525
     2  C   -0.330768
     3  C   -0.451767
     4  C   -0.050126
     5  C   -0.049876
     6  C   -0.217689
     7  C   -0.153299
     8  H    0.173905
     9  H    0.161150
    10  H    0.144735
    11  H    0.160577
    12  H    0.183953
    13  H    0.193097
    14  O   -0.315242
    15  C    0.001600
    16  O   -0.504292
    17  H    0.383723
    18  O   -0.222623
    19  C   -0.151333
    20  H    0.137601
    21  H    0.160559
    22  H    0.172166
    23  O   -0.290648
    24  Si   0.923542
    25  C   -0.727253
    26  H    0.185771
    27  H    0.185633
    28  H    0.188637
    29  C   -0.012813
    30  C   -0.725392
    31  H    0.187657
    32  H    0.189103
    33  H    0.187580
    34  C   -0.595273
    35  H    0.167565
    36  H    0.165121
    37  H    0.164663
    38  C   -0.524203
    39  H    0.166655
    40  H    0.168541
    41  H    0.165976
    42  C   -0.598938
    43  H    0.162636
    44  H    0.166854
    45  H    0.174221
    46  H    0.172390
    47  H    0.169399
 Sum of Mulliken atomic charges =   0.00000

 Dipole moment (field-independent basis, Debye):
    X=              0.3906    Y=             -1.8054    Z=              2.6530  Tot=              3.2327
 Quadrupole moment (field-independent basis, Debye-Ang):
   XX=           -119.8586   YY=           -118.5997   ZZ=           -129.4213
   XY=             10.4213   XZ=            -10.8518   YZ=              0.6338

 Normal termination of Gaussian 09 at Tue Dec  6 21:16:40 2022.
