 Gaussian 09, Revision C.01,
 Gaussian 09:  EM64L-G09RevC.01 23-Sep-2011

 -----------------------------------------------------
 # mPW1PW91/6-31+g** scrf=(PCM,solvent=chloroform) nmr
 -----------------------------------------------------

 99/9=1/99;
 -------
 comment
 -------
 Charge =  0 Multiplicity = 1

                         Standard orientation:
 ---------------------------------------------------------------------
 Center     Atomic      Atomic             Coordinates (Angstroms)
 Number     Number       Type             X           Y           Z
 ---------------------------------------------------------------------
      1          1           0        0.161890   -0.207796   -2.211200
      2          6           0        0.563820   -0.439929   -1.215728
      3          6           0        2.108708   -2.018655    0.047661
      4          6           0        2.118620    0.481187    0.555762
      5          6           0        2.928719   -0.811194    0.447221
      6          6           0        1.417134    0.772132   -0.779596
      7          6           0        1.411281   -1.721122   -1.291527
      8          1           0        1.353575   -2.219718    0.816313
      9          1           0        1.338222    0.331680    1.316979
     10          1           0        2.192540    0.939805   -1.546378
     11          1           0        2.162713   -1.606633   -2.085303
     12          1           0        2.749129   -2.904042   -0.026039
     13          1           0        0.762008   -2.555426   -1.578067
     14          8           0        3.899599   -0.964307    1.500275
     15          6           0        4.368198   -0.743572    0.151366
     16          8           0        2.950837    1.574191    0.917419
     17          1           0        3.454276    1.265755    1.691972
     18          8           0        0.555724    1.896197   -0.719217
     19          6           0        1.173161    3.156559   -0.947454
     20          1           0        1.884279    3.411054   -0.156336
     21          1           0        0.365505    3.893323   -0.970873
     22          1           0        1.695281    3.172296   -1.917262
     23          8           0       -0.492160   -0.636789   -0.286484
     24         14           0       -2.152792   -0.495413   -0.542405
     25          6           0       -2.501915    0.638388   -2.013747
     26          1           0       -3.569224    0.885517   -2.069842
     27          1           0       -2.230317    0.168770   -2.967005
     28          1           0       -1.936968    1.571638   -1.924670
     29          6           0       -2.878268    0.205397    1.083924
     30          6           0       -2.836796   -2.222385   -0.906653
     31          1           0       -3.916980   -2.202533   -1.095779
     32          1           0       -2.655426   -2.913583   -0.075371
     33          1           0       -2.356631   -2.646972   -1.797198
     34          6           0       -2.363983   -0.618531    2.284082
     35          1           0       -2.664545   -1.672038    2.218895
     36          1           0       -2.773952   -0.220446    3.223982
     37          1           0       -1.271555   -0.586556    2.356212
     38          6           0       -4.420333    0.132728    1.049568
     39          1           0       -4.782444   -0.899478    0.970543
     40          1           0       -4.842733    0.701728    0.211413
     41          1           0       -4.842323    0.556522    1.972374
     42          6           0       -2.444009    1.676896    1.258581
     43          1           0       -2.796293    2.065869    2.225435
     44          1           0       -2.866572    2.318308    0.475369
     45          1           0       -1.355478    1.788477    1.221767
     46          1           0        4.860128   -1.602000   -0.306093
     47          1           0        4.842958    0.220520   -0.016872
 ---------------------------------------------------------------------

 SCF Done:  E(RmPW1PW91) =  -1140.62444309     A.U. after   13 cycles

      1  H    Isotropic =    27.4037   Anisotropy =     4.0723

      2  C    Isotropic =   122.8456   Anisotropy =    36.5722

      3  C    Isotropic =   168.2508   Anisotropy =    28.6536

      4  C    Isotropic =   122.5670   Anisotropy =    38.1153

      5  C    Isotropic =   133.8906   Anisotropy =    59.4796

      6  C    Isotropic =   111.6819   Anisotropy =    40.8547

      7  C    Isotropic =   163.2940   Anisotropy =    20.5874

      8  H    Isotropic =    29.1817   Anisotropy =     6.0655

      9  H    Isotropic =    27.0986   Anisotropy =     6.8279

     10  H    Isotropic =    28.5480   Anisotropy =     3.0446

     11  H    Isotropic =    30.0069   Anisotropy =     9.2362

     12  H    Isotropic =    30.5094   Anisotropy =    11.0325

     13  H    Isotropic =    29.8122   Anisotropy =     8.8161

     14  O    Isotropic =   315.4876   Anisotropy =   109.6742

     15  C    Isotropic =   146.3096   Anisotropy =    33.3130

     16  O    Isotropic =   311.4649   Anisotropy =    46.4000

     17  H    Isotropic =    29.5340   Anisotropy =    17.1857

     18  O    Isotropic =   297.2953   Anisotropy =    68.6511

     19  C    Isotropic =   136.6433   Anisotropy =    86.1355

     20  H    Isotropic =    27.2669   Anisotropy =     8.7833

     21  H    Isotropic =    27.9507   Anisotropy =    10.4429

     22  H    Isotropic =    28.3579   Anisotropy =    10.3078

     23  O    Isotropic =   289.1009   Anisotropy =    26.6027

     24  Si   Isotropic =   378.3313   Anisotropy =    38.4946

     25  C    Isotropic =   199.7887   Anisotropy =     8.4022

     26  H    Isotropic =    31.6005   Anisotropy =    10.4428

     27  H    Isotropic =    31.4072   Anisotropy =     9.5729

     28  H    Isotropic =    31.0528   Anisotropy =     8.9885

     29  C    Isotropic =   172.3826   Anisotropy =     8.6323

     30  C    Isotropic =   197.8571   Anisotropy =     7.8781

     31  H    Isotropic =    31.6495   Anisotropy =    10.7164

     32  H    Isotropic =    31.3923   Anisotropy =     8.5871

     33  H    Isotropic =    31.6098   Anisotropy =     9.1422

     34  C    Isotropic =   170.4646   Anisotropy =    37.4443

     35  H    Isotropic =    30.4975   Anisotropy =     8.5818

     36  H    Isotropic =    30.9818   Anisotropy =     9.5242

     37  H    Isotropic =    30.2116   Anisotropy =     8.2917

     38  C    Isotropic =   170.1403   Anisotropy =    39.6360

     39  H    Isotropic =    30.7150   Anisotropy =     9.2224

     40  H    Isotropic =    30.7388   Anisotropy =     9.2445

     41  H    Isotropic =    30.9279   Anisotropy =    10.0638

     42  C    Isotropic =   170.3970   Anisotropy =    36.2858

     43  H    Isotropic =    31.0791   Anisotropy =     9.1280

     44  H    Isotropic =    30.6682   Anisotropy =     7.7315

     45  H    Isotropic =    29.7967   Anisotropy =    10.2653

     46  H    Isotropic =    29.0578   Anisotropy =    10.9051

     47  H    Isotropic =    28.4308   Anisotropy =     8.0820

 The electronic state is 1-A.
 Alpha  occ. eigenvalues --  -66.30136 -19.27044 -19.25458 -19.25076 -19.23081
 Alpha  occ. eigenvalues --  -10.31630 -10.30901 -10.30464 -10.30423 -10.30167
 Alpha  occ. eigenvalues --  -10.28113 -10.25402 -10.25373 -10.24418 -10.23402
 Alpha  occ. eigenvalues --  -10.23069 -10.22697 -10.22090 -10.22080  -5.33517
 Alpha  occ. eigenvalues --   -3.67435  -3.67149  -3.67110  -1.11584  -1.07359
 Alpha  occ. eigenvalues --   -1.05424  -1.02938  -0.84863  -0.81866  -0.77572
 Alpha  occ. eigenvalues --   -0.74998  -0.71931  -0.70131  -0.69983  -0.69744
 Alpha  occ. eigenvalues --   -0.69238  -0.69144  -0.63376  -0.62421  -0.58682
 Alpha  occ. eigenvalues --   -0.56107  -0.55013  -0.52550  -0.52125  -0.51566
 Alpha  occ. eigenvalues --   -0.48858  -0.47726  -0.47096  -0.46538  -0.45218
 Alpha  occ. eigenvalues --   -0.44320  -0.44121  -0.44070  -0.43420  -0.42308
 Alpha  occ. eigenvalues --   -0.41620  -0.41045  -0.40753  -0.40168  -0.39845
 Alpha  occ. eigenvalues --   -0.39639  -0.39145  -0.38724  -0.38471  -0.37571
 Alpha  occ. eigenvalues --   -0.36906  -0.36500  -0.35819  -0.33750  -0.33564
 Alpha  occ. eigenvalues --   -0.33273  -0.32756  -0.31974  -0.31327  -0.30567
 Alpha  occ. eigenvalues --   -0.28688  -0.28521  -0.27138  -0.26100
 Alpha virt. eigenvalues --   -0.00235   0.00700   0.01254   0.01517   0.02441
 Alpha virt. eigenvalues --    0.02987   0.03242   0.03694   0.03978   0.04819
 Alpha virt. eigenvalues --    0.04997   0.05423   0.05685   0.06300   0.06513

 Mulliken atomic charges:
              1
     1  H    0.144802
     2  C    0.159615
     3  C   -0.180440
     4  C    0.275197
     5  C   -0.332922
     6  C   -0.343718
     7  C   -0.438467
     8  H    0.193891
     9  H    0.179327
    10  H    0.148246
    11  H    0.173346
    12  H    0.170242
    13  H    0.174006
    14  O   -0.384391
    15  C   -0.114794
    16  O   -0.561902
    17  H    0.398536
    18  O   -0.199941
    19  C   -0.168341
    20  H    0.176528
    21  H    0.161284
    22  H    0.142008
    23  O   -0.243160
    24  Si   0.662051
    25  C   -0.732078
    26  H    0.186521
    27  H    0.184570
    28  H    0.207269
    29  C   -0.079717
    30  C   -0.708964
    31  H    0.185031
    32  H    0.184870
    33  H    0.180203
    34  C   -0.554553
    35  H    0.163521
    36  H    0.160715
    37  H    0.175826
    38  C   -0.522907
    39  H    0.169567
    40  H    0.164223
    41  H    0.165213
    42  C   -0.586373
    43  H    0.157188
    44  H    0.161053
    45  H    0.190328
    46  H    0.173156
    47  H    0.184334
 Sum of Mulliken atomic charges =   0.00000

 Dipole moment (field-independent basis, Debye):
    X=              0.4592    Y=             -0.8833    Z=             -3.2319  Tot=              3.3817
 Quadrupole moment (field-independent basis, Debye-Ang):
   XX=           -122.5976   YY=           -125.2881   ZZ=           -125.5422
   XY=             -0.3238   XZ=             -7.5651   YZ=              2.5574

 Normal termination of Gaussian 09 at Tue Dec  6 22:56:08 2022.
