 Gaussian 09, Revision C.01,
 Gaussian 09:  EM64L-G09RevC.01 23-Sep-2011

 -----------------------------------------------------------------
 # mPW1PW91/6-31g** scrf=(pcm,solvent=chloroform,smd,dovacuum) nmr
 -----------------------------------------------------------------

 99/9=1/99;
 -------
 comment
 -------
 Charge =  0 Multiplicity = 1

                         Standard orientation:
 ---------------------------------------------------------------------
 Center     Atomic      Atomic             Coordinates (Angstroms)
 Number     Number       Type             X           Y           Z
 ---------------------------------------------------------------------
      1          6           0       -2.564995    0.247045   -0.337694
      2          1           0       -2.954561   -0.587157   -0.933372
      3          6           0       -1.406486   -0.223798    0.556404
      4          1           0       -1.093214    0.603091    1.199071
      5          6           0       -0.258967   -0.740629   -0.301157
      6          8           0       -0.437440   -1.612255   -1.152512
      7          8           0       -3.626391    0.717455    0.499134
      8          1           0       -4.393841    0.885655   -0.075505
      9          6           0       -1.842543   -1.355603    1.493157
     10          1           0       -0.994175   -1.717054    2.085031
     11          1           0       -2.239332   -2.208828    0.931748
     12          1           0       -2.616172   -1.017741    2.190090
     13          6           0        1.121189   -0.216606   -0.088547
     14          6           0        3.756283    0.667427    0.253430
     15          6           0        2.198430   -1.051356   -0.416941
     16          6           0        1.373453    1.072399    0.394096
     17          6           0        2.690018    1.509266    0.567461
     18          6           0        3.511612   -0.611603   -0.242042
     19          1           0        2.017560   -2.050581   -0.809511
     20          1           0        0.570299    1.766068    0.622154
     21          1           0        2.884709    2.511702    0.941876
     22          1           0        4.341425   -1.266671   -0.495743
     23          1           0        4.779092    1.011378    0.387693
     24          6           0       -2.169500    1.393230   -1.264424
     25          1           0       -3.039734    1.743171   -1.830680
     26          1           0       -1.396890    1.094705   -1.978524
     27          1           0       -1.805480    2.252035   -0.689757
 ---------------------------------------------------------------------

 SCF Done:  E(RmPW1PW91) =  -577.945393176     A.U. after   12 cycles

      1  C    Isotropic =   125.0994   Anisotropy =    42.4300

      2  H    Isotropic =    27.4093   Anisotropy =     5.5239

      3  C    Isotropic =   147.6539   Anisotropy =    31.9711

      4  H    Isotropic =    27.9891   Anisotropy =     7.7622

      5  C    Isotropic =    -9.6077   Anisotropy =   176.3807

      6  O    Isotropic =  -239.3328   Anisotropy =   947.7001

      7  O    Isotropic =   280.8984   Anisotropy =    66.3090

      8  H    Isotropic =    30.5362   Anisotropy =    18.7173

      9  C    Isotropic =   178.1164   Anisotropy =    25.0894

     10  H    Isotropic =    30.7236   Anisotropy =     8.6015

     11  H    Isotropic =    30.5514   Anisotropy =     9.0187

     12  H    Isotropic =    29.9894   Anisotropy =     9.2104

     13  C    Isotropic =    61.3034   Anisotropy =   160.8074

     14  C    Isotropic =    66.3419   Anisotropy =   181.6984

     15  C    Isotropic =    69.1299   Anisotropy =   179.3826

     16  C    Isotropic =    70.3759   Anisotropy =   175.7657

     17  C    Isotropic =    70.2572   Anisotropy =   173.8859

     18  C    Isotropic =    69.8290   Anisotropy =   174.6283

     19  H    Isotropic =    23.3597   Anisotropy =     7.0945

     20  H    Isotropic =    23.2950   Anisotropy =     8.7270

     21  H    Isotropic =    23.7540   Anisotropy =     5.3180

     22  H    Isotropic =    23.7413   Anisotropy =     4.7082

     23  H    Isotropic =    23.6720   Anisotropy =     4.4980

     24  C    Isotropic =   171.3970   Anisotropy =    33.9121

     25  H    Isotropic =    30.6153   Anisotropy =     9.7831

     26  H    Isotropic =    30.6583   Anisotropy =     6.2848

     27  H    Isotropic =    30.4273   Anisotropy =     6.7267

 The electronic state is 1-A.
 Alpha  occ. eigenvalues --  -19.22869 -19.22612 -10.33719 -10.29194 -10.26312
 Alpha  occ. eigenvalues --  -10.26126 -10.25842 -10.25818 -10.25601 -10.25512
 Alpha  occ. eigenvalues --  -10.25265 -10.23174 -10.22607  -1.06310  -1.03590
 Alpha  occ. eigenvalues --   -0.88655  -0.82304  -0.78303  -0.77208  -0.74604
 Alpha  occ. eigenvalues --   -0.67293  -0.64730  -0.62764  -0.60296  -0.55395
 Alpha  occ. eigenvalues --   -0.54143  -0.50741  -0.47333  -0.47143  -0.46600
 Alpha  occ. eigenvalues --   -0.45672  -0.44388  -0.43454  -0.43167  -0.41153
 Alpha  occ. eigenvalues --   -0.39934  -0.38929  -0.37913  -0.36735  -0.36582
 Alpha  occ. eigenvalues --   -0.35782  -0.35610  -0.34799  -0.32118  -0.27449
 Alpha  occ. eigenvalues --   -0.26942  -0.26837  -0.25773
 Alpha virt. eigenvalues --   -0.04914  -0.00356   0.04106   0.09731   0.11029
 Alpha virt. eigenvalues --    0.13150   0.14416   0.15999   0.16432   0.17226
 Alpha virt. eigenvalues --    0.17860   0.18404   0.19377   0.19892   0.20386

 Mulliken atomic charges:
              1
     1  C    0.151934
     2  H    0.132609
     3  C   -0.195890
     4  H    0.153452
     5  C    0.420253
     6  O   -0.517499
     7  O   -0.600747
     8  H    0.345443
     9  C   -0.403698
    10  H    0.144279
    11  H    0.146854
    12  H    0.155382
    13  C   -0.008062
    14  C   -0.131820
    15  C   -0.136352
    16  C   -0.149995
    17  C   -0.160661
    18  C   -0.155691
    19  H    0.163880
    20  H    0.168009
    21  H    0.159748
    22  H    0.160101
    23  H    0.160438
    24  C   -0.425762
    25  H    0.138564
    26  H    0.142450
    27  H    0.142782
 Sum of Mulliken atomic charges =   0.00000

 Dipole moment (field-independent basis, Debye):
    X=              0.9660    Y=              2.3480    Z=              0.5716  Tot=              2.6025
 Quadrupole moment (field-independent basis, Debye-Ang):
   XX=            -60.6431   YY=            -75.5456   ZZ=            -80.8832
   XY=             -1.3869   XZ=              5.6574   YZ=             -2.3477

 Normal termination of Gaussian 09 at Tue Dec 21 08:47:20 2021.
