 Gaussian 09, Revision C.01,
 Gaussian 09:  EM64L-G09RevC.01 23-Sep-2011

 -----------------------------------------------------------------
 # mPW1PW91/6-31g** scrf=(pcm,solvent=chloroform,smd,dovacuum) nmr
 -----------------------------------------------------------------

 99/9=1/99;
 -------
 comment
 -------
 Charge =  0 Multiplicity = 1

                         Standard orientation:
 ---------------------------------------------------------------------
 Center     Atomic      Atomic             Coordinates (Angstroms)
 Number     Number       Type             X           Y           Z
 ---------------------------------------------------------------------
      1          6           0       -2.672830   -0.290067   -0.169364
      2          1           0       -3.005510   -0.858775    0.706518
      3          6           0       -1.389306    0.500908    0.154816
      4          1           0       -1.108260    1.053081   -0.748482
      5          6           0       -0.264676   -0.442885    0.569695
      6          8           0       -0.490456   -1.462361    1.221586
      7          8           0       -3.727800    0.623157   -0.495773
      8          1           0       -3.533577    1.015994   -1.363528
      9          6           0       -1.628063    1.502838    1.287540
     10          1           0       -0.705144    2.025624    1.559271
     11          1           0       -1.992844    0.998500    2.189459
     12          1           0       -2.364431    2.259611    0.998935
     13          6           0        1.147910   -0.132052    0.185121
     14          6           0        3.826615    0.329070   -0.507483
     15          6           0        1.548026    1.120261   -0.296778
     16          6           0        2.106312   -1.146768    0.324981
     17          6           0        3.439196   -0.917429   -0.021892
     18          6           0        2.883911    1.346787   -0.642743
     19          1           0        0.850611    1.945268   -0.400250
     20          1           0        1.818589   -2.125393    0.706151
     21          1           0        4.173001   -1.711886    0.090377
     22          1           0        3.191339    2.321974   -1.013642
     23          1           0        4.865056    0.509063   -0.775267
     24          6           0       -2.502020   -1.246671   -1.347650
     25          1           0       -3.458549   -1.721937   -1.591521
     26          1           0       -1.772821   -2.033345   -1.135482
     27          1           0       -2.181857   -0.708093   -2.246489
 ---------------------------------------------------------------------

 SCF Done:  E(RmPW1PW91) =  -577.947765841     A.U. after   12 cycles

      1  C    Isotropic =   125.4527   Anisotropy =    44.3507

      2  H    Isotropic =    27.4898   Anisotropy =     5.2054

      3  C    Isotropic =   143.3928   Anisotropy =    35.7831

      4  H    Isotropic =    28.4275   Anisotropy =     5.8943

      5  C    Isotropic =    -7.5536   Anisotropy =   173.5611

      6  O    Isotropic =  -228.5290   Anisotropy =   935.3741

      7  O    Isotropic =   281.0217   Anisotropy =    62.3280

      8  H    Isotropic =    31.4293   Anisotropy =    15.3542

      9  C    Isotropic =   177.4933   Anisotropy =    24.7018

     10  H    Isotropic =    30.3223   Anisotropy =     7.9759

     11  H    Isotropic =    30.5354   Anisotropy =     9.0844

     12  H    Isotropic =    29.6679   Anisotropy =     8.7683

     13  C    Isotropic =    63.7281   Anisotropy =   160.2936

     14  C    Isotropic =    66.1796   Anisotropy =   182.0727

     15  C    Isotropic =    70.1243   Anisotropy =   175.6246

     16  C    Isotropic =    69.4197   Anisotropy =   183.6475

     17  C    Isotropic =    69.6544   Anisotropy =   174.3745

     18  C    Isotropic =    70.1464   Anisotropy =   173.3769

     19  H    Isotropic =    23.2857   Anisotropy =     9.2249

     20  H    Isotropic =    23.1618   Anisotropy =     7.2416

     21  H    Isotropic =    23.7189   Anisotropy =     4.8276

     22  H    Isotropic =    23.7682   Anisotropy =     5.2295

     23  H    Isotropic =    23.7021   Anisotropy =     4.5030

     24  C    Isotropic =   172.3170   Anisotropy =    35.9711

     25  H    Isotropic =    30.3500   Anisotropy =    10.0805

     26  H    Isotropic =    30.4424   Anisotropy =     7.7827

     27  H    Isotropic =    31.1631   Anisotropy =     6.2141

 The electronic state is 1-A.
 Alpha  occ. eigenvalues --  -19.22866 -19.22702 -10.33701 -10.29093 -10.26347
 Alpha  occ. eigenvalues --  -10.26190 -10.25897 -10.25799 -10.25646 -10.25527
 Alpha  occ. eigenvalues --  -10.25187 -10.23369 -10.22586  -1.06342  -1.03585
 Alpha  occ. eigenvalues --   -0.88659  -0.82114  -0.78280  -0.77208  -0.74624
 Alpha  occ. eigenvalues --   -0.67254  -0.64721  -0.62836  -0.60914  -0.56177
 Alpha  occ. eigenvalues --   -0.53096  -0.49468  -0.48773  -0.46846  -0.46060
 Alpha  occ. eigenvalues --   -0.45141  -0.44520  -0.43604  -0.43054  -0.42394
 Alpha  occ. eigenvalues --   -0.40267  -0.38323  -0.37372  -0.36998  -0.36640
 Alpha  occ. eigenvalues --   -0.36143  -0.35271  -0.35017  -0.32282  -0.27795
 Alpha  occ. eigenvalues --   -0.26984  -0.26738  -0.25684
 Alpha virt. eigenvalues --   -0.05134  -0.00374   0.04531   0.09954   0.11243
 Alpha virt. eigenvalues --    0.14081   0.14141   0.14655   0.17111   0.17455
 Alpha virt. eigenvalues --    0.17944   0.18573   0.18838   0.19491   0.19870

 Mulliken atomic charges:
              1
     1  C    0.146478
     2  H    0.149615
     3  C   -0.212204
     4  H    0.146214
     5  C    0.432951
     6  O   -0.518412
     7  O   -0.593005
     8  H    0.338641
     9  C   -0.398488
    10  H    0.143619
    11  H    0.150125
    12  H    0.153632
    13  C   -0.007143
    14  C   -0.131372
    15  C   -0.155182
    16  C   -0.136859
    17  C   -0.155428
    18  C   -0.162286
    19  H    0.165829
    20  H    0.164166
    21  H    0.160128
    22  H    0.159472
    23  H    0.160641
    24  C   -0.429958
    25  H    0.147111
    26  H    0.146996
    27  H    0.134719
 Sum of Mulliken atomic charges =   0.00000

 Dipole moment (field-independent basis, Debye):
    X=              2.8050    Y=              2.5769    Z=             -3.0096  Tot=              4.8545
 Quadrupole moment (field-independent basis, Debye-Ang):
   XX=            -75.4283   YY=            -73.5001   ZZ=            -77.3544
   XY=             -0.9206   XZ=              2.8714   YZ=             -0.6157

 Normal termination of Gaussian 09 at Tue Dec 21 08:52:56 2021.
