 Gaussian 09, Revision C.01,
 Gaussian 09:  EM64L-G09RevC.01 23-Sep-2011

 -----------------------------------------------------------------
 # mPW1PW91/6-31g** scrf=(pcm,solvent=chloroform,smd,dovacuum) nmr
 -----------------------------------------------------------------

 99/9=1/99;
 -------
 comment
 -------
 Charge =  0 Multiplicity = 1

                         Standard orientation:
 ---------------------------------------------------------------------
 Center     Atomic      Atomic             Coordinates (Angstroms)
 Number     Number       Type             X           Y           Z
 ---------------------------------------------------------------------
      1          6           0       -2.798046    0.352915   -0.283559
      2          1           0       -3.391031    1.254743   -0.479432
      3          6           0       -1.322949    0.786045   -0.111633
      4          1           0       -1.075239    1.365813   -1.009655
      5          6           0       -0.368200   -0.413223   -0.088766
      6          8           0       -0.778416   -1.574929   -0.102169
      7          8           0       -2.936818   -0.463512   -1.447535
      8          1           0       -2.447580   -1.292808   -1.260204
      9          6           0       -1.143243    1.658669    1.130754
     10          1           0       -0.167531    2.153565    1.137944
     11          1           0       -1.206507    1.065829    2.049635
     12          1           0       -1.904657    2.444642    1.171729
     13          6           0        1.108456   -0.189637   -0.076400
     14          6           0        3.890775    0.122034   -0.020469
     15          6           0        1.924763   -1.196794    0.456717
     16          6           0        1.697687    0.967603   -0.598344
     17          6           0        3.086429    1.122112   -0.565454
     18          6           0        3.311345   -1.038749    0.487922
     19          1           0        1.482947   -2.110508    0.850346
     20          1           0        1.103226    1.756553   -1.048504
     21          1           0        3.543004    2.021463   -0.972444
     22          1           0        3.937715   -1.823726    0.904642
     23          1           0        4.971196    0.243779    0.000612
     24          6           0       -3.434592   -0.358257    0.907780
     25          1           0       -4.464513   -0.643853    0.665473
     26          1           0       -3.461106    0.280851    1.794714
     27          1           0       -2.912607   -1.285119    1.161488
 ---------------------------------------------------------------------

 SCF Done:  E(RmPW1PW91) =  -577.947656492     A.U. after   12 cycles

      1  C    Isotropic =   125.1955   Anisotropy =    52.6614

      2  H    Isotropic =    27.7757   Anisotropy =     5.3681

      3  C    Isotropic =   148.7039   Anisotropy =    19.6782

      4  H    Isotropic =    27.9576   Anisotropy =     6.0985

      5  C    Isotropic =   -11.3316   Anisotropy =   172.4323

      6  O    Isotropic =  -231.6127   Anisotropy =   895.4310

      7  O    Isotropic =   278.5713   Anisotropy =    21.3372

      8  H    Isotropic =    28.4035   Anisotropy =    16.0793

      9  C    Isotropic =   179.7443   Anisotropy =    18.1102

     10  H    Isotropic =    30.3105   Anisotropy =     8.5538

     11  H    Isotropic =    30.7210   Anisotropy =     7.1007

     12  H    Isotropic =    30.6393   Anisotropy =     9.6987

     13  C    Isotropic =    62.7692   Anisotropy =   157.7226

     14  C    Isotropic =    66.1057   Anisotropy =   181.9664

     15  C    Isotropic =    69.3149   Anisotropy =   180.0319

     16  C    Isotropic =    70.3986   Anisotropy =   174.3005

     17  C    Isotropic =    70.3297   Anisotropy =   174.0663

     18  C    Isotropic =    69.5042   Anisotropy =   175.4072

     19  H    Isotropic =    23.3088   Anisotropy =     7.2120

     20  H    Isotropic =    23.4053   Anisotropy =     8.5637

     21  H    Isotropic =    23.7701   Anisotropy =     5.0483

     22  H    Isotropic =    23.7097   Anisotropy =     4.8280

     23  H    Isotropic =    23.6746   Anisotropy =     4.4371

     24  C    Isotropic =   177.7242   Anisotropy =    26.4795

     25  H    Isotropic =    30.4567   Anisotropy =     9.6733

     26  H    Isotropic =    30.5187   Anisotropy =     8.0920

     27  H    Isotropic =    29.9672   Anisotropy =     7.1217

 The electronic state is 1-A.
 Alpha  occ. eigenvalues --  -19.23773 -19.21517 -10.34420 -10.28804 -10.26587
 Alpha  occ. eigenvalues --  -10.26320 -10.26023 -10.25983 -10.25752 -10.25657
 Alpha  occ. eigenvalues --  -10.25577 -10.23758 -10.22063  -1.07366  -1.02432
 Alpha  occ. eigenvalues --   -0.88858  -0.82408  -0.78461  -0.77383  -0.73771
 Alpha  occ. eigenvalues --   -0.67861  -0.65120  -0.63004  -0.60701  -0.56426
 Alpha  occ. eigenvalues --   -0.52497  -0.49744  -0.48835  -0.47292  -0.46181
 Alpha  occ. eigenvalues --   -0.45441  -0.44330  -0.43687  -0.42920  -0.41904
 Alpha  occ. eigenvalues --   -0.40069  -0.39072  -0.37908  -0.37281  -0.36681
 Alpha  occ. eigenvalues --   -0.36175  -0.35678  -0.34926  -0.32254  -0.27265
 Alpha  occ. eigenvalues --   -0.27047  -0.26583  -0.25904
 Alpha virt. eigenvalues --   -0.05198  -0.00479   0.03657   0.10376   0.11981
 Alpha virt. eigenvalues --    0.13660   0.14642   0.15678   0.16662   0.16991
 Alpha virt. eigenvalues --    0.17731   0.18358   0.18773   0.19453   0.20073

 Mulliken atomic charges:
              1
     1  C    0.133307
     2  H    0.139715
     3  C   -0.215389
     4  H    0.177134
     5  C    0.426924
     6  O   -0.515252
     7  O   -0.607233
     8  H    0.340452
     9  C   -0.414383
    10  H    0.147566
    11  H    0.155077
    12  H    0.155106
    13  C   -0.003717
    14  C   -0.131306
    15  C   -0.136118
    16  C   -0.148435
    17  C   -0.161099
    18  C   -0.155777
    19  H    0.164912
    20  H    0.167254
    21  H    0.160948
    22  H    0.161301
    23  H    0.161429
    24  C   -0.423726
    25  H    0.142105
    26  H    0.134113
    27  H    0.145091
 Sum of Mulliken atomic charges =   0.00000

 Dipole moment (field-independent basis, Debye):
    X=              3.3886    Y=              2.8084    Z=              1.7781  Tot=              4.7467
 Quadrupole moment (field-independent basis, Debye-Ang):
   XX=            -72.3262   YY=            -72.8828   ZZ=            -80.4592
   XY=             -3.0567   XZ=             -5.8226   YZ=             -3.5141

 Normal termination of Gaussian 09 at Tue Dec 21 07:46:54 2021.
