 Gaussian 09, Revision C.01,
 Gaussian 09:  EM64L-G09RevC.01 23-Sep-2011

 -----------------------------------------------------------------
 # mPW1PW91/6-31g** scrf=(pcm,solvent=chloroform,smd,dovacuum) nmr
 -----------------------------------------------------------------

 99/9=1/99;
 -------
 comment
 -------
 Charge =  0 Multiplicity = 1

                         Standard orientation:
 ---------------------------------------------------------------------
 Center     Atomic      Atomic             Coordinates (Angstroms)
 Number     Number       Type             X           Y           Z
 ---------------------------------------------------------------------
      1          6           0        2.575500    0.104195   -0.622802
      2          1           0        2.287031    0.642929   -1.533993
      3          6           0        1.322210   -0.507140    0.043203
      4          1           0        0.977208   -1.315954   -0.609635
      5          6           0        0.234113    0.562835    0.119130
      6          8           0        0.527240    1.748978    0.286900
      7          8           0        3.214866    1.042943    0.241185
      8          1           0        2.541732    1.729406    0.437528
      9          6           0        1.586011   -1.045175    1.449604
     10          1           0        0.674541   -1.460967    1.891575
     11          1           0        1.934558   -0.256223    2.124933
     12          1           0        2.336219   -1.841194    1.436372
     13          6           0       -1.209118    0.181126    0.003699
     14          6           0       -3.943678   -0.406316   -0.221983
     15          6           0       -2.155325    1.211658   -0.102112
     16          6           0       -1.649558   -1.148084    0.001429
     17          6           0       -3.013064   -1.437901   -0.112128
     18          6           0       -3.515909    0.918865   -0.215764
     19          1           0       -1.837507    2.253128   -0.097023
     20          1           0       -0.962220   -1.982247    0.097723
     21          1           0       -3.350655   -2.471920   -0.111057
     22          1           0       -4.239388    1.726450   -0.297519
     23          1           0       -5.003221   -0.635059   -0.308710
     24          6           0        3.609306   -0.949610   -1.001842
     25          1           0        4.452053   -0.480155   -1.521556
     26          1           0        3.180311   -1.711930   -1.658965
     27          1           0        4.029550   -1.438356   -0.116962
 ---------------------------------------------------------------------

 SCF Done:  E(RmPW1PW91) =  -577.951811117     A.U. after   12 cycles

      1  C    Isotropic =   127.9898   Anisotropy =    44.2704

      2  H    Isotropic =    27.3012   Anisotropy =     4.2310

      3  C    Isotropic =   149.6528   Anisotropy =    25.3204

      4  H    Isotropic =    28.3744   Anisotropy =     8.1684

      5  C    Isotropic =   -11.8780   Anisotropy =   176.9334

      6  O    Isotropic =  -193.1708   Anisotropy =   866.2323

      7  O    Isotropic =   297.7778   Anisotropy =    80.4852

      8  H    Isotropic =    27.7417   Anisotropy =    21.5998

      9  C    Isotropic =   183.3940   Anisotropy =    18.9320

     10  H    Isotropic =    30.4906   Anisotropy =     8.2613

     11  H    Isotropic =    30.1644   Anisotropy =     8.0865

     12  H    Isotropic =    30.1739   Anisotropy =     9.6202

     13  C    Isotropic =    64.9971   Anisotropy =   158.0335

     14  C    Isotropic =    65.3182   Anisotropy =   183.5025

     15  C    Isotropic =    69.3622   Anisotropy =   185.4479

     16  C    Isotropic =    69.2942   Anisotropy =   176.8214

     17  C    Isotropic =    69.9879   Anisotropy =   173.5578

     18  C    Isotropic =    69.4474   Anisotropy =   174.5385

     19  H    Isotropic =    23.0510   Anisotropy =     7.5089

     20  H    Isotropic =    23.2675   Anisotropy =     9.4639

     21  H    Isotropic =    23.7453   Anisotropy =     5.3077

     22  H    Isotropic =    23.6897   Anisotropy =     4.8350

     23  H    Isotropic =    23.6474   Anisotropy =     4.5659

     24  C    Isotropic =   176.2134   Anisotropy =    32.3501

     25  H    Isotropic =    30.3759   Anisotropy =    10.2459

     26  H    Isotropic =    30.9111   Anisotropy =     9.6710

     27  H    Isotropic =    30.3490   Anisotropy =     6.5857

 The electronic state is 1-A.
 Alpha  occ. eigenvalues --  -19.23877 -19.21422 -10.34306 -10.28833 -10.26669
 Alpha  occ. eigenvalues --  -10.26435 -10.26101 -10.26031 -10.25809 -10.25692
 Alpha  occ. eigenvalues --  -10.25342 -10.23534 -10.22547  -1.07367  -1.02384
 Alpha  occ. eigenvalues --   -0.88884  -0.82266  -0.78476  -0.77402  -0.74519
 Alpha  occ. eigenvalues --   -0.68034  -0.64829  -0.62822  -0.59334  -0.56247
 Alpha  occ. eigenvalues --   -0.53059  -0.50621  -0.49043  -0.48271  -0.46898
 Alpha  occ. eigenvalues --   -0.45212  -0.44016  -0.43502  -0.43240  -0.40225
 Alpha  occ. eigenvalues --   -0.39416  -0.38825  -0.38031  -0.37717  -0.36735
 Alpha  occ. eigenvalues --   -0.36190  -0.35488  -0.35166  -0.32680  -0.27281
 Alpha  occ. eigenvalues --   -0.26961  -0.26798  -0.26118
 Alpha virt. eigenvalues --   -0.05621  -0.00536   0.04390   0.10213   0.11964
 Alpha virt. eigenvalues --    0.14146   0.15040   0.15360   0.16339   0.17215
 Alpha virt. eigenvalues --    0.17466   0.18309   0.18950   0.19875   0.20990

 Mulliken atomic charges:
              1
     1  C    0.132276
     2  H    0.126149
     3  C   -0.210197
     4  H    0.156712
     5  C    0.436008
     6  O   -0.525887
     7  O   -0.601075
     8  H    0.340014
     9  C   -0.398812
    10  H    0.145445
    11  H    0.154142
    12  H    0.153894
    13  C   -0.009118
    14  C   -0.128935
    15  C   -0.134707
    16  C   -0.153173
    17  C   -0.161997
    18  C   -0.154682
    19  H    0.166273
    20  H    0.168088
    21  H    0.161345
    22  H    0.161654
    23  H    0.162529
    24  C   -0.415863
    25  H    0.145289
    26  H    0.140705
    27  H    0.143926
 Sum of Mulliken atomic charges =   0.00000

 Dipole moment (field-independent basis, Debye):
    X=             -3.8752    Y=             -3.3803    Z=             -0.9411  Tot=              5.2277
 Quadrupole moment (field-independent basis, Debye-Ang):
   XX=            -75.5911   YY=            -73.2703   ZZ=            -78.0836
   XY=             -4.5949   XZ=             -1.3396   YZ=             -0.9114

 Normal termination of Gaussian 09 at Tue Dec 21 08:25:44 2021.
