 Gaussian 09, Revision C.01,
 Gaussian 09:  EM64L-G09RevC.01 23-Sep-2011

 -----------------------------------------------------------------
 # mPW1PW91/6-31g** scrf=(pcm,solvent=chloroform,smd,dovacuum) nmr
 -----------------------------------------------------------------

 99/9=1/99;
 -------
 comment
 -------
 Charge =  0 Multiplicity = 1

                         Standard orientation:
 ---------------------------------------------------------------------
 Center     Atomic      Atomic             Coordinates (Angstroms)
 Number     Number       Type             X           Y           Z
 ---------------------------------------------------------------------
      1          6           0       -2.705700    0.175109    0.532500
      2          1           0       -3.371935    0.982282    0.859882
      3          6           0       -1.358124    0.800641    0.109479
      4          1           0       -0.950949    1.300428    0.994705
      5          6           0       -0.379094   -0.268826   -0.371709
      6          8           0       -0.780135   -1.269683   -0.970135
      7          8           0       -3.360078   -0.463729   -0.561342
      8          1           0       -2.717470   -1.102772   -0.939024
      9          6           0       -1.556216    1.821896   -1.011588
     10          1           0       -1.937905    1.350415   -1.923946
     11          1           0       -0.612510    2.311106   -1.273803
     12          1           0       -2.263338    2.600645   -0.707712
     13          6           0        1.088865   -0.108406   -0.128911
     14          6           0        3.857011    0.067546    0.291728
     15          6           0        1.921743   -1.207770   -0.385500
     16          6           0        1.659496    1.083434    0.334047
     17          6           0        3.039592    1.167847    0.543935
     18          6           0        3.299226   -1.120244   -0.174460
     19          1           0        1.501244   -2.142835   -0.752239
     20          1           0        1.063260    1.968791    0.529380
     21          1           0        3.479058    2.096444    0.901330
     22          1           0        3.934449   -1.979318   -0.376409
     23          1           0        4.929945    0.137019    0.454460
     24          6           0       -2.576919   -0.815365    1.685275
     25          1           0       -3.568699   -1.166213    1.991375
     26          1           0       -2.089564   -0.356452    2.550727
     27          1           0       -2.013158   -1.707412    1.394304
 ---------------------------------------------------------------------

 SCF Done:  E(RmPW1PW91) =  -577.951696332     A.U. after   12 cycles

      1  C    Isotropic =   123.6387   Anisotropy =    40.1242

      2  H    Isotropic =    27.7697   Anisotropy =     5.7250

      3  C    Isotropic =   150.0800   Anisotropy =    19.4755

      4  H    Isotropic =    28.2338   Anisotropy =     6.5989

      5  C    Isotropic =   -11.5798   Anisotropy =   175.5676

      6  O    Isotropic =  -201.2174   Anisotropy =   871.1960

      7  O    Isotropic =   296.9173   Anisotropy =    47.4457

      8  H    Isotropic =    27.4248   Anisotropy =    19.9813

      9  C    Isotropic =   176.9759   Anisotropy =    28.2617

     10  H    Isotropic =    29.9055   Anisotropy =     7.3044

     11  H    Isotropic =    30.2468   Anisotropy =     8.0580

     12  H    Isotropic =    30.2604   Anisotropy =    10.3501

     13  C    Isotropic =    64.1922   Anisotropy =   158.4471

     14  C    Isotropic =    65.2069   Anisotropy =   183.6290

     15  C    Isotropic =    69.5891   Anisotropy =   185.5206

     16  C    Isotropic =    69.3697   Anisotropy =   177.2637

     17  C    Isotropic =    69.9313   Anisotropy =   173.7710

     18  C    Isotropic =    69.4880   Anisotropy =   174.7144

     19  H    Isotropic =    23.0719   Anisotropy =     7.5145

     20  H    Isotropic =    23.2631   Anisotropy =     9.1481

     21  H    Isotropic =    23.7407   Anisotropy =     5.1876

     22  H    Isotropic =    23.6871   Anisotropy =     4.8879

     23  H    Isotropic =    23.6460   Anisotropy =     4.5282

     24  C    Isotropic =   173.1631   Anisotropy =    34.1348

     25  H    Isotropic =    30.3036   Anisotropy =     9.9021

     26  H    Isotropic =    30.8608   Anisotropy =     8.6228

     27  H    Isotropic =    30.5460   Anisotropy =     5.1029

 The electronic state is 1-A.
 Alpha  occ. eigenvalues --  -19.24020 -19.21213 -10.34541 -10.28850 -10.26722
 Alpha  occ. eigenvalues --  -10.26484 -10.26141 -10.26090 -10.25846 -10.25732
 Alpha  occ. eigenvalues --  -10.25464 -10.23564 -10.22230  -1.07591  -1.02262
 Alpha  occ. eigenvalues --   -0.88940  -0.82315  -0.78483  -0.77441  -0.74553
 Alpha  occ. eigenvalues --   -0.67590  -0.64541  -0.63107  -0.60915  -0.56678
 Alpha  occ. eigenvalues --   -0.53195  -0.49453  -0.48575  -0.47271  -0.45950
 Alpha  occ. eigenvalues --   -0.45541  -0.44358  -0.44027  -0.43169  -0.42072
 Alpha  occ. eigenvalues --   -0.40482  -0.38585  -0.37707  -0.37479  -0.36749
 Alpha  occ. eigenvalues --   -0.36385  -0.35630  -0.35140  -0.32095  -0.27348
 Alpha  occ. eigenvalues --   -0.27016  -0.26620  -0.26125
 Alpha virt. eigenvalues --   -0.05753  -0.00572   0.04198   0.10383   0.11848
 Alpha virt. eigenvalues --    0.14200   0.15238   0.16101   0.16558   0.16920
 Alpha virt. eigenvalues --    0.17373   0.18680   0.18943   0.19629   0.20277

 Mulliken atomic charges:
              1
     1  C    0.131479
     2  H    0.138265
     3  C   -0.212202
     4  H    0.158090
     5  C    0.442062
     6  O   -0.527651
     7  O   -0.603482
     8  H    0.340377
     9  C   -0.399785
    10  H    0.155046
    11  H    0.144781
    12  H    0.151798
    13  C   -0.007808
    14  C   -0.128705
    15  C   -0.134390
    16  C   -0.152283
    17  C   -0.161451
    18  C   -0.154573
    19  H    0.166688
    20  H    0.168546
    21  H    0.161603
    22  H    0.162110
    23  H    0.162875
    24  C   -0.417380
    25  H    0.143473
    26  H    0.132254
    27  H    0.140266
 Sum of Mulliken atomic charges =   0.00000

 Dipole moment (field-independent basis, Debye):
    X=              4.3208    Y=              2.4823    Z=              2.1426  Tot=              5.4242
 Quadrupole moment (field-independent basis, Debye-Ang):
   XX=            -77.5460   YY=            -71.2387   ZZ=            -78.8873
   XY=             -3.5269   XZ=             -3.2815   YZ=              1.3966

 Normal termination of Gaussian 09 at Tue Dec 21 08:44:37 2021.
