 Gaussian 09, Revision C.01,
 Gaussian 09:  EM64L-G09RevC.01 23-Sep-2011

 -----------------------------------------------------------------
 # mPW1PW91/6-31g** scrf=(pcm,solvent=chloroform,smd,dovacuum) nmr
 -----------------------------------------------------------------

 99/9=1/99;
 -------
 comment
 -------
 Charge =  0 Multiplicity = 1

                         Standard orientation:
 ---------------------------------------------------------------------
 Center     Atomic      Atomic             Coordinates (Angstroms)
 Number     Number       Type             X           Y           Z
 ---------------------------------------------------------------------
      1          6           0       -1.409397    0.623721    0.697188
      2          6           0       -2.314903   -0.621659    0.688696
      3          6           0        2.466224    1.003146    0.009114
      4          6           0        0.070593   -0.627352   -0.921156
      5          6           0        0.036460    0.192862    0.396000
      6          6           0        1.015462    1.401342    0.378379
      7          6           0        0.509900    2.558607   -0.526071
      8          6           0       -0.936624    2.938696   -0.185037
      9          6           0       -1.881107    1.743282   -0.239988
     10          6           0       -3.781284   -0.285582    0.972011
     11          6           0        2.938642   -0.379346    0.484692
     12          6           0        1.393072    3.808004   -0.424362
     13          6           0        2.009486   -1.534687    0.054489
     14          6           0        2.814766   -2.809164   -0.180332
     15          8           0        1.360637   -1.199911   -1.173260
     16          8           0       -0.919285   -1.665565   -1.007990
     17          1           0       -1.439748    1.023722    1.722140
     18          1           0       -1.993665   -1.295142    1.495327
     19          1           0        2.588790    1.047291   -1.081484
     20          1           0        3.157502    1.753010    0.414188
     21          1           0       -0.123381    0.024822   -1.778761
     22          1           0        1.064519    1.783848    1.409787
     23          1           0        0.533508    2.228420   -1.572752
     24          1           0       -1.294269    3.705503   -0.883149
     25          1           0       -0.977217    3.383886    0.817662
     26          1           0       -2.878907    2.089087    0.052179
     27          1           0       -1.963937    1.384362   -1.272231
     28          1           0       -4.358195   -1.201769    1.142565
     29          1           0       -4.251883    0.235468    0.131666
     30          1           0       -3.875909    0.337108    1.867519
     31          1           0        3.069522   -0.377147    1.573680
     32          1           0        3.936054   -0.527618    0.050654
     33          1           0        0.976978    4.627058   -1.021165
     34          1           0        2.402276    3.617060   -0.801408
     35          1           0        1.474172    4.152899    0.611936
     36          1           0        3.543543   -2.680455   -0.987644
     37          1           0        3.336251   -3.123481    0.729967
     38          1           0        2.151493   -3.631240   -0.474336
     39          6           0       -2.181631   -1.432294   -0.587813
     40          8           0       -3.137881   -1.948712   -1.155253
     41          8           0        0.455159   -0.595059    1.538681
     42          8           0        1.044439   -1.845022    1.067672
 ---------------------------------------------------------------------

 SCF Done:  E(RmPW1PW91) =  -960.723000096     A.U. after   13 cycles

      1  C    Isotropic =   149.0955   Anisotropy =    16.0457

      2  C    Isotropic =   158.8679   Anisotropy =    22.3412

      3  C    Isotropic =   168.5134   Anisotropy =    18.7078

      4  C    Isotropic =    97.6581   Anisotropy =    38.4287

      5  C    Isotropic =   112.7809   Anisotropy =    56.7949

      6  C    Isotropic =   144.9820   Anisotropy =    25.4922

      7  C    Isotropic =   157.4872   Anisotropy =    16.8726

      8  C    Isotropic =   161.6515   Anisotropy =    20.8941

      9  C    Isotropic =   170.2605   Anisotropy =    16.4683

     10  C    Isotropic =   180.0449   Anisotropy =    18.1506

     11  C    Isotropic =   157.9202   Anisotropy =    34.8154

     12  C    Isotropic =   175.3636   Anisotropy =    30.9603

     13  C    Isotropic =    90.0580   Anisotropy =    24.7651

     14  C    Isotropic =   170.0423   Anisotropy =    41.8866

     15  O    Isotropic =   219.9812   Anisotropy =   105.9295

     16  O    Isotropic =   117.0562   Anisotropy =   182.8832

     17  H    Isotropic =    29.8195   Anisotropy =     4.5495

     18  H    Isotropic =    28.3452   Anisotropy =     5.3162

     19  H    Isotropic =    29.9875   Anisotropy =     6.1822

     20  H    Isotropic =    29.7599   Anisotropy =     8.9178

     21  H    Isotropic =    25.5049   Anisotropy =     1.9403

     22  H    Isotropic =    30.0996   Anisotropy =     3.9942

     23  H    Isotropic =    30.1520   Anisotropy =     3.8499

     24  H    Isotropic =    30.0865   Anisotropy =     9.7734

     25  H    Isotropic =    30.6327   Anisotropy =     7.3640

     26  H    Isotropic =    29.7696   Anisotropy =     9.6823

     27  H    Isotropic =    30.5089   Anisotropy =     5.9896

     28  H    Isotropic =    30.1756   Anisotropy =    11.3716

     29  H    Isotropic =    30.4415   Anisotropy =     7.8947

     30  H    Isotropic =    31.1406   Anisotropy =     9.7928

     31  H    Isotropic =    29.0591   Anisotropy =     7.7779

     32  H    Isotropic =    29.5063   Anisotropy =     8.9828

     33  H    Isotropic =    30.8043   Anisotropy =    11.0259

     34  H    Isotropic =    30.4158   Anisotropy =     9.2659

     35  H    Isotropic =    31.1486   Anisotropy =     8.8578

     36  H    Isotropic =    30.1134   Anisotropy =     9.4531

     37  H    Isotropic =    30.2238   Anisotropy =    10.0026

     38  H    Isotropic =    30.3267   Anisotropy =     9.5381

     39  C    Isotropic =    21.6115   Anisotropy =    93.7630

     40  O    Isotropic =   -97.0524   Anisotropy =   607.2010

     41  O    Isotropic =    51.6650   Anisotropy =   349.3605

     42  O    Isotropic =    41.7709   Anisotropy =   225.3652

 The electronic state is 1-A.
 Alpha  occ. eigenvalues --  -19.30670 -19.30362 -19.28384 -19.26729 -19.22705
 Alpha  occ. eigenvalues --  -10.37891 -10.37251 -10.36028 -10.32111 -10.26163
 Alpha  occ. eigenvalues --  -10.26062 -10.25447 -10.24795 -10.24257 -10.24155
 Alpha  occ. eigenvalues --  -10.24035 -10.23901 -10.23568 -10.23093 -10.22816
 Alpha  occ. eigenvalues --   -1.17060  -1.13229  -1.07901  -1.03810  -0.96546
 Alpha  occ. eigenvalues --   -0.86917  -0.83332  -0.81300  -0.78120  -0.77105
 Alpha  occ. eigenvalues --   -0.74494  -0.71593  -0.69753  -0.66950  -0.65921
 Alpha  occ. eigenvalues --   -0.62648  -0.61055  -0.59599  -0.58646  -0.55619
 Alpha  occ. eigenvalues --   -0.54010  -0.53281  -0.50900  -0.49221  -0.48660
 Alpha  occ. eigenvalues --   -0.47271  -0.46811  -0.45459  -0.45312  -0.44558
 Alpha  occ. eigenvalues --   -0.43658  -0.42958  -0.42421  -0.41757  -0.41037
 Alpha  occ. eigenvalues --   -0.40726  -0.40010  -0.39799  -0.39371  -0.38805
 Alpha  occ. eigenvalues --   -0.38384  -0.37132  -0.36464  -0.35789  -0.35527
 Alpha  occ. eigenvalues --   -0.34731  -0.34431  -0.33328  -0.33224  -0.32726
 Alpha  occ. eigenvalues --   -0.30986  -0.30542  -0.30179  -0.28843  -0.27802
 Alpha  occ. eigenvalues --   -0.26748
 Alpha virt. eigenvalues --    0.00512   0.01696   0.08899   0.09862   0.10600
 Alpha virt. eigenvalues --    0.11530   0.12806   0.13609   0.14017   0.14425
 Alpha virt. eigenvalues --    0.15195   0.15858   0.16339   0.16939   0.17147

 Mulliken atomic charges:
              1
     1  C   -0.146778
     2  C   -0.211453
     3  C   -0.271013
     4  C    0.415909
     5  C    0.152828
     6  C   -0.068923
     7  C   -0.123878
     8  C   -0.246495
     9  C   -0.259704
    10  C   -0.401718
    11  C   -0.258392
    12  C   -0.409853
    13  C    0.465821
    14  C   -0.425273
    15  O   -0.538727
    16  O   -0.497451
    17  H    0.159502
    18  H    0.197370
    19  H    0.141324
    20  H    0.146701
    21  H    0.185062
    22  H    0.143704
    23  H    0.134405
    24  H    0.135242
    25  H    0.131576
    26  H    0.150706
    27  H    0.143233
    28  H    0.148884
    29  H    0.148799
    30  H    0.139763
    31  H    0.157438
    32  H    0.152468
    33  H    0.137281
    34  H    0.139064
    35  H    0.136756
    36  H    0.168724
    37  H    0.162742
    38  H    0.160025
    39  C    0.643690
    40  O   -0.507384
    41  O   -0.319226
    42  O   -0.312750
 Sum of Mulliken atomic charges =   0.00000

 Dipole moment (field-independent basis, Debye):
    X=              3.4682    Y=              5.4354    Z=              1.4093  Tot=              6.5999
 Quadrupole moment (field-independent basis, Debye-Ang):
   XX=           -117.3379   YY=           -120.9425   ZZ=           -122.1310
   XY=            -11.9510   XZ=             -7.2672   YZ=             -4.6996

 Normal termination of Gaussian 09 at Sat Oct 16 12:30:09 2021.
