 Gaussian 09, Revision C.01,
 Gaussian 09:  EM64L-G09RevC.01 23-Sep-2011

 -----------------------------------------------------------------
 # mPW1PW91/6-31g** scrf=(pcm,solvent=chloroform,smd,dovacuum) nmr
 -----------------------------------------------------------------

 99/9=1/99;
 -------
 comment
 -------
 Charge =  0 Multiplicity = 1

                         Standard orientation:
 ---------------------------------------------------------------------
 Center     Atomic      Atomic             Coordinates (Angstroms)
 Number     Number       Type             X           Y           Z
 ---------------------------------------------------------------------
      1          1           0        1.739596   -1.632104   -1.595276
      2          6           0        1.718153   -1.769589   -0.508478
      3          1           0        0.984881   -2.559278   -0.304857
      4          6           0        3.102241   -2.257922   -0.105139
      5          1           0        3.157543   -2.566438    0.941528
      6          1           0        3.352654   -3.139432   -0.707515
      7          6           0        3.889257    0.224899    0.163829
      8          6           0        2.398183    0.639053   -0.115945
      9          6           0        1.294630   -0.446203    0.185896
     10          6           0        4.148802   -1.199893   -0.361741
     11          8           0        5.213398   -1.516147   -0.897983
     12          6           0        4.831807    1.181544   -0.615392
     13          1           0        4.602102    1.178859   -1.687200
     14          1           0        5.882329    0.883030   -0.513208
     15          1           0        4.763535    2.211864   -0.253905
     16          6           0        4.323819    0.281348    1.635930
     17          1           0        3.812548   -0.446893    2.264183
     18          1           0        4.171452    1.274789    2.068894
     19          1           0        5.392742    0.050970    1.730282
     20          6           0        2.010311    2.014889    0.474704
     21          1           0        2.031826    1.983925    1.569212
     22          1           0        2.733038    2.780944    0.176974
     23          6           0       -0.121377    0.070436   -0.373112
     24          6           0        0.627989    2.487862    0.017849
     25          1           0        0.663135    2.740165   -1.048671
     26          1           0        0.378992    3.416883    0.545286
     27          6           0       -0.450259    1.438567    0.283240
     28          1           0        2.373194    0.776790   -1.205919
     29          6           0        1.140311   -0.745951    1.707608
     30          1           0        0.269519   -1.381218    1.903287
     31          1           0        1.024376    0.157570    2.310216
     32          1           0        1.984230   -1.290279    2.127995
     33          6           0       -0.156056    0.139272   -1.924465
     34          1           0       -1.111843    0.520964   -2.297768
     35          1           0       -0.077279   -0.859519   -2.366317
     36          1           0        0.625295    0.772738   -2.348272
     37          1           0       -0.509025    1.296628    1.371292
     38          8           0       -1.125409   -0.903263    0.003340
     39          6           0       -2.449407   -0.500561    0.031236
     40          6           0       -2.817212    0.791193   -0.049517
     41          6           0       -1.844654    1.925465   -0.120096
     42          1           0       -2.146914    2.729560    0.562533
     43          1           0       -1.843328    2.350180   -1.130736
     44          8           0       -3.374703   -1.528933    0.139233
     45          6           0       -4.727426   -1.242961    0.154866
     46          6           0       -5.603464   -2.448621    0.272905
     47          1           0       -5.430610   -3.125542   -0.569888
     48          1           0       -6.666268   -2.185466    0.281280
     49          1           0       -5.382420   -2.987232    1.199962
     50          6           0       -5.206468    0.003393    0.070252
     51          1           0       -6.260810    0.245014    0.079548
     52          6           0       -4.259030    1.123000   -0.042178
     53          8           0       -4.665208    2.266745   -0.219145
 ---------------------------------------------------------------------

 SCF Done:  E(RmPW1PW91) =  -1117.79907681     A.U. after   13 cycles

      1  H    Isotropic =    29.5827   Anisotropy =     6.0291

      2  C    Isotropic =   163.7511   Anisotropy =    28.7215

      3  H    Isotropic =    29.6858   Anisotropy =     8.7398

      4  C    Isotropic =   159.1715   Anisotropy =    35.1591

      5  H    Isotropic =    28.7614   Anisotropy =     6.6467

      6  H    Isotropic =    29.2931   Anisotropy =     9.7787

      7  C    Isotropic =   145.1236   Anisotropy =    24.9421

      8  C    Isotropic =   146.6934   Anisotropy =    18.5324

      9  C    Isotropic =   147.8869   Anisotropy =    19.7544

     10  C    Isotropic =   -22.0591   Anisotropy =   201.9901

     11  O    Isotropic =  -270.4149   Anisotropy =   926.7163

     12  C    Isotropic =   169.1210   Anisotropy =    37.4244

     13  H    Isotropic =    31.0022   Anisotropy =     9.4737

     14  H    Isotropic =    30.0537   Anisotropy =    10.5782

     15  H    Isotropic =    30.6134   Anisotropy =     7.1793

     16  C    Isotropic =   174.3808   Anisotropy =    28.8646

     17  H    Isotropic =    30.2191   Anisotropy =     6.7704

     18  H    Isotropic =    30.3633   Anisotropy =     7.2452

     19  H    Isotropic =    30.9636   Anisotropy =    10.9492

     20  C    Isotropic =   172.0477   Anisotropy =    11.1001

     21  H    Isotropic =    29.8684   Anisotropy =     6.0131

     22  H    Isotropic =    30.1223   Anisotropy =    10.0083

     23  C    Isotropic =   107.0365   Anisotropy =    51.6229

     24  C    Isotropic =   165.6183   Anisotropy =    22.4426

     25  H    Isotropic =    30.3426   Anisotropy =     6.7840

     26  H    Isotropic =    29.8078   Anisotropy =    10.3241

     27  C    Isotropic =   161.4835   Anisotropy =     5.5943

     28  H    Isotropic =    29.6231   Anisotropy =     4.9897

     29  C    Isotropic =   181.5427   Anisotropy =    16.0547

     30  H    Isotropic =    30.3919   Anisotropy =     9.2365

     31  H    Isotropic =    30.1395   Anisotropy =     6.3016

     32  H    Isotropic =    30.1281   Anisotropy =     9.0831

     33  C    Isotropic =   181.5677   Anisotropy =    22.1764

     34  H    Isotropic =    30.4182   Anisotropy =     7.8400

     35  H    Isotropic =    30.4582   Anisotropy =     8.4755

     36  H    Isotropic =    30.3225   Anisotropy =     8.0066

     37  H    Isotropic =    29.3576   Anisotropy =     4.1879

     38  O    Isotropic =   182.3886   Anisotropy =    86.0070

     39  C    Isotropic =    31.4287   Anisotropy =    79.6315

     40  C    Isotropic =    90.4345   Anisotropy =   107.2915

     41  C    Isotropic =   169.8701   Anisotropy =    20.6939

     42  H    Isotropic =    29.3182   Anisotropy =     9.8115

     43  H    Isotropic =    29.6978   Anisotropy =     7.1496

     44  O    Isotropic =   125.5345   Anisotropy =   224.4065

     45  C    Isotropic =    34.7613   Anisotropy =   109.6176

     46  C    Isotropic =   175.1939   Anisotropy =    35.6426

     47  H    Isotropic =    29.4032   Anisotropy =     8.4749

     48  H    Isotropic =    29.4868   Anisotropy =     8.9842

     49  H    Isotropic =    29.3844   Anisotropy =     8.4474

     50  C    Isotropic =    81.9440   Anisotropy =    98.8029

     51  H    Isotropic =    25.3050   Anisotropy =     5.2613

     52  C    Isotropic =    21.9103   Anisotropy =   149.1047

     53  O    Isotropic =  -116.4884   Anisotropy =   752.6178

 The electronic state is 1-A.
 Alpha  occ. eigenvalues --  -19.32554 -19.28713 -19.22437 -19.19656 -10.38487
 Alpha  occ. eigenvalues --  -10.33746 -10.32908 -10.32433 -10.31793 -10.27049
 Alpha  occ. eigenvalues --  -10.26653 -10.25411 -10.25107 -10.25080 -10.24895
 Alpha  occ. eigenvalues --  -10.24578 -10.24422 -10.24087 -10.24025 -10.23808
 Alpha  occ. eigenvalues --  -10.23552 -10.23420 -10.23346 -10.22619 -10.22593
 Alpha  occ. eigenvalues --   -1.15096  -1.09139  -1.05476  -1.04040  -0.88071
 Alpha  occ. eigenvalues --   -0.84772  -0.84006  -0.82552  -0.81107  -0.77587
 Alpha  occ. eigenvalues --   -0.76728  -0.74385  -0.72779  -0.70390  -0.69383
 Alpha  occ. eigenvalues --   -0.67639  -0.67209  -0.66393  -0.62917  -0.62319
 Alpha  occ. eigenvalues --   -0.59085  -0.58364  -0.55794  -0.54153  -0.52367
 Alpha  occ. eigenvalues --   -0.51324  -0.50619  -0.49759  -0.48671  -0.48171
 Alpha  occ. eigenvalues --   -0.47255  -0.46371  -0.45948  -0.44701  -0.44496
 Alpha  occ. eigenvalues --   -0.43993  -0.43406  -0.42787  -0.42526  -0.41959
 Alpha  occ. eigenvalues --   -0.41481  -0.41362  -0.40971  -0.40428  -0.40065
 Alpha  occ. eigenvalues --   -0.39856  -0.39264  -0.38858  -0.38675  -0.38058
 Alpha  occ. eigenvalues --   -0.37622  -0.37246  -0.36622  -0.36019  -0.35578
 Alpha  occ. eigenvalues --   -0.35051  -0.34384  -0.34319  -0.33278  -0.33123
 Alpha  occ. eigenvalues --   -0.32666  -0.30863  -0.29889  -0.29089  -0.26494
 Alpha  occ. eigenvalues --   -0.24648  -0.24546  -0.23902
 Alpha virt. eigenvalues --   -0.01836  -0.00909   0.01401   0.08587   0.09406
 Alpha virt. eigenvalues --    0.10714   0.11340   0.12146   0.12624   0.13227
 Alpha virt. eigenvalues --    0.13911   0.14374   0.14859   0.15407   0.15691

 Mulliken atomic charges:
              1
     1  H    0.144532
     2  C   -0.256918
     3  H    0.145387
     4  C   -0.332336
     5  H    0.174294
     6  H    0.159182
     7  C   -0.094842
     8  C   -0.092814
     9  C   -0.019125
    10  C    0.472199
    11  O   -0.509811
    12  C   -0.387784
    13  H    0.135237
    14  H    0.145426
    15  H    0.135751
    16  C   -0.394660
    17  H    0.142310
    18  H    0.151916
    19  H    0.146054
    20  C   -0.258862
    21  H    0.136687
    22  H    0.137007
    23  C    0.257336
    24  C   -0.253327
    25  H    0.135940
    26  H    0.140961
    27  C   -0.145388
    28  H    0.135386
    29  C   -0.409039
    30  H    0.145864
    31  H    0.139917
    32  H    0.139307
    33  C   -0.415680
    34  H    0.150505
    35  H    0.156119
    36  H    0.156144
    37  H    0.152844
    38  O   -0.566123
    39  C    0.601994
    40  C   -0.088479
    41  C   -0.270213
    42  H    0.162285
    43  H    0.156709
    44  O   -0.545452
    45  C    0.331945
    46  C   -0.461920
    47  H    0.179655
    48  H    0.180198
    49  H    0.180209
    50  C   -0.231561
    51  H    0.172046
    52  C    0.412345
    53  O   -0.579360
 Sum of Mulliken atomic charges =   0.00000

 Dipole moment (field-independent basis, Debye):
    X=             -0.5225    Y=             -2.1179    Z=              1.7522  Tot=              2.7980
 Quadrupole moment (field-independent basis, Debye-Ang):
   XX=           -171.9895   YY=           -151.6583   ZZ=           -145.1633
   XY=             34.3207   XZ=              6.1899   YZ=             -1.3550

 Normal termination of Gaussian 09 at Sat Oct 16 15:08:04 2021.
