 Gaussian 09, Revision C.01,
 Gaussian 09:  AM64L-G09RevC.01 23-Sep-2011

 -------------------
 # b3lyp/6-31g** nmr
 -------------------

 99/9=1/99;
 -------
 comment
 -------
 Charge =  0 Multiplicity = 1

                         Standard orientation:
 ---------------------------------------------------------------------
 Center     Atomic      Atomic             Coordinates (Angstroms)
 Number     Number       Type             X           Y           Z
 ---------------------------------------------------------------------
      1          1           0       -2.607259    0.870402    0.000000
      2          6           0       -2.405313   -0.205567    0.000000
      3          1           0       -2.891626   -0.643477    0.881475
      4          1           0       -2.891626   -0.643477   -0.881475
      5          6           0       -0.931937   -0.496868    0.000000
      6          1           0       -0.626960   -1.541808    0.000000
      7          6           0        0.000000    0.452460    0.000000
      8          1           0       -0.215583    1.515590    0.000000
      9         17           0        1.720974    0.114272    0.000000
 ---------------------------------------------------------------------

 SCF Done:  E(RB3LYP) =  -577.512604229     A.U. after   14 cycles

      1  H    Isotropic =    30.1424   Anisotropy =     6.1408

      2  C    Isotropic =   173.9700   Anisotropy =    25.5912

      3  H    Isotropic =    29.9870   Anisotropy =     8.7558

      4  H    Isotropic =    29.9870   Anisotropy =     8.7558

      5  C    Isotropic =    67.4341   Anisotropy =   131.6734

      6  H    Isotropic =    25.8161   Anisotropy =     5.9834

      7  C    Isotropic =    70.0715   Anisotropy =    78.8408

      8  H    Isotropic =    25.8875   Anisotropy =     5.1699

      9  Cl   Isotropic =   752.1788   Anisotropy =   402.9407

 The electronic state is 1-A'.
 Alpha  occ. eigenvalues -- -101.54345 -10.24160 -10.20569 -10.19744  -9.45998
 Alpha  occ. eigenvalues --   -7.22379  -7.21434  -7.21393  -0.86528  -0.78251
 Alpha  occ. eigenvalues --   -0.67940  -0.57020  -0.46903  -0.45279  -0.42391
 Alpha  occ. eigenvalues --   -0.38768  -0.37063  -0.35280  -0.30699  -0.24789
 Alpha virt. eigenvalues --    0.00802   0.04052   0.11249   0.12009   0.16003
 Alpha virt. eigenvalues --    0.16287   0.16656   0.26830   0.32710   0.39903
 Alpha virt. eigenvalues --    0.42870   0.45460   0.45763   0.49873   0.52040

 Mulliken atomic charges:
              1
     1  H    0.115662
     2  C   -0.353785
     3  H    0.126334
     4  H    0.126334
     5  C   -0.009831
     6  H    0.111626
     7  C   -0.215926
     8  H    0.138434
     9  Cl  -0.038849
 Sum of Mulliken atomic charges =   0.00000

 Dipole moment (field-independent basis, Debye):
    X=             -2.0918    Y=              0.0444    Z=              0.0000  Tot=              2.0922
 Quadrupole moment (field-independent basis, Debye-Ang):
   XX=            -30.9013   YY=            -29.4927   ZZ=            -32.8220
   XY=              0.1344   XZ=              0.0000   YZ=              0.0000

 Normal termination of Gaussian 09 at Fri Nov  1 16:05:23 2024.
