 Gaussian 09, Revision C.01,
 Gaussian 09:  AM64L-G09RevC.01 23-Sep-2011

 ------------------------------------------------
 # mpw1pw91/6-31+G** nmr scrf=(pcm,solvent=water)
 ------------------------------------------------

 99/9=1/99;
 -------
 comment
 -------
 Charge =  0 Multiplicity = 1

                         Standard orientation:
 ---------------------------------------------------------------------
 Center     Atomic      Atomic             Coordinates (Angstroms)
 Number     Number       Type             X           Y           Z
 ---------------------------------------------------------------------
      1          6           0       -1.893234    1.131090   -0.360662
      2          6           0       -0.702047    0.338355   -0.928843
      3          7           0        0.508812    0.817915   -0.173197
      4          6           0        0.073719    1.908602    0.739280
      5          6           0       -1.226125    2.426709    0.122693
      6          6           0        1.140171   -0.346762    0.501309
      7          6           0        0.093494   -1.461134    0.523774
      8          6           0       -0.722954   -1.197314   -0.759628
      9          1           0       -2.676048    1.295073   -1.107228
     10          1           0       -2.340116    0.605839    0.488894
     11          1           0       -0.587947    0.582478   -1.990929
     12          1           0        0.849945    2.677858    0.818694
     13          1           0       -0.119597    1.524871    1.751228
     14          1           0       -1.010461    3.087086   -0.726288
     15          1           0       -1.834348    2.985208    0.840925
     16          1           0        1.426822   -0.063805    1.519524
     17          1           0        0.546254   -2.463115    0.520177
     18          1           0       -0.221474   -1.672627   -1.609169
     19          8           0       -2.062461   -1.686256   -0.655620
     20          1           0       -2.031579   -2.644796   -0.815425
     21          8           0       -0.752047   -1.312947    1.668512
     22          1           0       -1.630857   -1.613832    1.364067
     23          6           0        2.413218   -0.746399   -0.257982
     24          1           0        3.000059   -1.463191    0.325283
     25          1           0        2.156209   -1.222151   -1.217628
     26          8           0        3.225239    0.406091   -0.475024
     27          1           0        2.568154    1.085714   -0.732347
 ---------------------------------------------------------------------

 SCF Done:  E(RmPW1PW91) =  -594.199467999     A.U. after   13 cycles

      1  C    Isotropic =   166.3120   Anisotropy =    18.3607

      2  C    Isotropic =   128.2804   Anisotropy =    57.3879

      3  N    Isotropic =   198.1405   Anisotropy =    80.9308

      4  C    Isotropic =   136.4302   Anisotropy =    61.8775

      5  C    Isotropic =   165.9867   Anisotropy =    20.9419

      6  C    Isotropic =   122.7670   Anisotropy =    31.2352

      7  C    Isotropic =   118.5535   Anisotropy =    26.7394

      8  C    Isotropic =   119.9506   Anisotropy =    47.1081

      9  H    Isotropic =    29.9174   Anisotropy =    10.7615

     10  H    Isotropic =    29.4841   Anisotropy =     6.3369

     11  H    Isotropic =    27.7832   Anisotropy =     8.5453

     12  H    Isotropic =    28.3012   Anisotropy =     9.4441

     13  H    Isotropic =    28.5210   Anisotropy =     7.8729

     14  H    Isotropic =    29.6916   Anisotropy =    11.0971

     15  H    Isotropic =    29.5915   Anisotropy =    11.7668

     16  H    Isotropic =    28.4604   Anisotropy =     6.8043

     17  H    Isotropic =    27.9300   Anisotropy =     7.5087

     18  H    Isotropic =    27.0946   Anisotropy =     5.6405

     19  O    Isotropic =   313.4818   Anisotropy =   102.7155

     20  H    Isotropic =    30.0997   Anisotropy =    22.9493

     21  O    Isotropic =   302.5264   Anisotropy =    44.0526

     22  H    Isotropic =    28.4731   Anisotropy =    16.3116

     23  C    Isotropic =   133.6501   Anisotropy =    50.9846

     24  H    Isotropic =    28.2349   Anisotropy =     6.9051

     25  H    Isotropic =    28.6306   Anisotropy =     5.7714

     26  O    Isotropic =   314.1256   Anisotropy =    43.5698

     27  H    Isotropic =    28.4401   Anisotropy =    17.2075

 The electronic state is 1-A.
 Alpha  occ. eigenvalues --  -19.27237 -19.25225 -19.24708 -14.41815 -10.31078
 Alpha  occ. eigenvalues --  -10.30388 -10.29313 -10.28145 -10.28061 -10.26859
 Alpha  occ. eigenvalues --  -10.24571 -10.24436  -1.08396  -1.05311  -1.04885
 Alpha  occ. eigenvalues --   -0.96260  -0.82978  -0.79121  -0.75335  -0.71282
 Alpha  occ. eigenvalues --   -0.66765  -0.61270  -0.60937  -0.57935  -0.55231
 Alpha  occ. eigenvalues --   -0.53420  -0.52468  -0.50747  -0.49291  -0.46744
 Alpha  occ. eigenvalues --   -0.46269  -0.44399  -0.44065  -0.42037  -0.40132
 Alpha  occ. eigenvalues --   -0.40035  -0.38578  -0.37159  -0.36597  -0.35380
 Alpha  occ. eigenvalues --   -0.34859  -0.34451  -0.34203  -0.31311  -0.29324
 Alpha  occ. eigenvalues --   -0.28897  -0.23833
 Alpha virt. eigenvalues --    0.00110   0.01388   0.01992   0.02483   0.03708
 Alpha virt. eigenvalues --    0.04366   0.04678   0.04904   0.05560   0.07089
 Alpha virt. eigenvalues --    0.07794   0.08687   0.08945   0.09036   0.09396

 Mulliken atomic charges:
              1
     1  C   -0.332204
     2  C   -0.169551
     3  N   -0.259190
     4  C   -0.105438
     5  C   -0.449471
     6  C    0.147405
     7  C   -0.095131
     8  C   -0.041108
     9  H    0.174027
    10  H    0.178423
    11  H    0.171568
    12  H    0.163794
    13  H    0.165290
    14  H    0.176734
    15  H    0.176693
    16  H    0.177892
    17  H    0.162844
    18  H    0.181258
    19  O   -0.615008
    20  H    0.407860
    21  O   -0.552107
    22  H    0.387682
    23  C   -0.216049
    24  H    0.168768
    25  H    0.143099
    26  O   -0.534683
    27  H    0.386605
 Sum of Mulliken atomic charges =   0.00000

 Dipole moment (field-independent basis, Debye):
    X=             -3.1968    Y=             -2.3387    Z=             -1.7175  Tot=              4.3173
 Quadrupole moment (field-independent basis, Debye-Ang):
   XX=            -88.1974   YY=            -60.1248   ZZ=            -76.1630
   XY=             -1.5538   XZ=              2.5251   YZ=              4.6297

 Normal termination of Gaussian 09 at Fri May 17 12:42:17 2024.
