 Gaussian 09, Revision C.01,
 Gaussian 09:  AM64L-G09RevC.01 23-Sep-2011

 ------------------------------------------------
 # mpw1pw91/6-31+G** nmr scrf=(pcm,solvent=water)
 ------------------------------------------------

 99/9=1/99;
 -------
 comment
 -------
 Charge =  0 Multiplicity = 1

                         Standard orientation:
 ---------------------------------------------------------------------
 Center     Atomic      Atomic             Coordinates (Angstroms)
 Number     Number       Type             X           Y           Z
 ---------------------------------------------------------------------
      1          6           0       -1.915010    1.083828   -0.357874
      2          6           0       -0.707687    0.321194   -0.929332
      3          7           0        0.494906    0.827223   -0.176382
      4          6           0        0.038611    1.911450    0.734093
      5          6           0       -1.279424    2.394896    0.126276
      6          6           0        1.146679   -0.325825    0.497574
      7          6           0        0.113579   -1.453904    0.534411
      8          6           0       -0.693503   -1.219248   -0.752784
      9          1           0       -2.704237    1.230789   -1.101804
     10          1           0       -2.345968    0.541899    0.489542
     11          1           0       -0.599274    0.564898   -1.992545
     12          1           0        0.794359    2.701881    0.802964
     13          1           0       -0.135879    1.528502    1.749431
     14          1           0       -1.087429    3.062942   -0.722254
     15          1           0       -1.897492    2.935280    0.849984
     16          1           0        1.435150   -0.037363    1.513575
     17          1           0        0.577227   -2.450200    0.547109
     18          1           0       -0.155169   -1.676617   -1.592277
     19          8           0       -1.972184   -1.835767   -0.609921
     20          1           0       -2.515185   -1.588174   -1.377053
     21          8           0       -0.717565   -1.289788    1.689681
     22          1           0       -1.580273   -1.675605    1.451434
     23          6           0        2.421276   -0.713041   -0.265902
     24          1           0        3.016573   -1.422973    0.317095
     25          1           0        2.167555   -1.191967   -1.224526
     26          8           0        3.222064    0.446841   -0.485795
     27          1           0        2.560050    1.119761   -0.746497
 ---------------------------------------------------------------------

 SCF Done:  E(RmPW1PW91) =  -594.198734517     A.U. after   13 cycles

      1  C    Isotropic =   166.4752   Anisotropy =    18.2578

      2  C    Isotropic =   127.1021   Anisotropy =    54.3962

      3  N    Isotropic =   196.8240   Anisotropy =    84.6547

      4  C    Isotropic =   136.4825   Anisotropy =    62.3251

      5  C    Isotropic =   165.9717   Anisotropy =    21.0785

      6  C    Isotropic =   122.5710   Anisotropy =    29.9699

      7  C    Isotropic =   117.8620   Anisotropy =    28.5649

      8  C    Isotropic =   120.0150   Anisotropy =    47.2066

      9  H    Isotropic =    29.9896   Anisotropy =    10.7741

     10  H    Isotropic =    29.4491   Anisotropy =     6.4073

     11  H    Isotropic =    27.9147   Anisotropy =     8.2793

     12  H    Isotropic =    28.2771   Anisotropy =     9.4878

     13  H    Isotropic =    28.4732   Anisotropy =     7.7635

     14  H    Isotropic =    29.6788   Anisotropy =    11.0993

     15  H    Isotropic =    29.5649   Anisotropy =    11.7183

     16  H    Isotropic =    28.5017   Anisotropy =     6.8487

     17  H    Isotropic =    27.6318   Anisotropy =     7.3802

     18  H    Isotropic =    27.1438   Anisotropy =     5.9812

     19  O    Isotropic =   307.6353   Anisotropy =    48.6378

     20  H    Isotropic =    29.8820   Anisotropy =    19.1797

     21  O    Isotropic =   305.1873   Anisotropy =    42.3905

     22  H    Isotropic =    28.8236   Anisotropy =    16.5096

     23  C    Isotropic =   133.6318   Anisotropy =    50.8397

     24  H    Isotropic =    28.2129   Anisotropy =     6.9037

     25  H    Isotropic =    28.5883   Anisotropy =     5.7422

     26  O    Isotropic =   314.1054   Anisotropy =    44.3570

     27  H    Isotropic =    28.5071   Anisotropy =    17.0654

 The electronic state is 1-A.
 Alpha  occ. eigenvalues --  -19.26878 -19.25355 -19.24739 -14.41849 -10.30959
 Alpha  occ. eigenvalues --  -10.30631 -10.29331 -10.28195 -10.27977 -10.26877
 Alpha  occ. eigenvalues --  -10.24633 -10.24491  -1.08128  -1.05331  -1.04938
 Alpha  occ. eigenvalues --   -0.96257  -0.83077  -0.79005  -0.75316  -0.71701
 Alpha  occ. eigenvalues --   -0.66767  -0.61158  -0.60615  -0.59051  -0.54343
 Alpha  occ. eigenvalues --   -0.53899  -0.52284  -0.50436  -0.49279  -0.46875
 Alpha  occ. eigenvalues --   -0.45726  -0.44933  -0.43490  -0.43041  -0.40619
 Alpha  occ. eigenvalues --   -0.38987  -0.38771  -0.37426  -0.36617  -0.35669
 Alpha  occ. eigenvalues --   -0.34683  -0.34418  -0.34083  -0.30846  -0.29332
 Alpha  occ. eigenvalues --   -0.29166  -0.23774
 Alpha virt. eigenvalues --    0.00126   0.01513   0.02060   0.02406   0.03516
 Alpha virt. eigenvalues --    0.04445   0.04739   0.04894   0.05481   0.06944
 Alpha virt. eigenvalues --    0.07866   0.08665   0.08886   0.09097   0.09748

 Mulliken atomic charges:
              1
     1  C   -0.368774
     2  C   -0.129331
     3  N   -0.263577
     4  C   -0.096452
     5  C   -0.460341
     6  C    0.129055
     7  C   -0.095715
     8  C   -0.050785
     9  H    0.176027
    10  H    0.186023
    11  H    0.172402
    12  H    0.163825
    13  H    0.165741
    14  H    0.177291
    15  H    0.177122
    16  H    0.178601
    17  H    0.162367
    18  H    0.176892
    19  O   -0.580878
    20  H    0.396002
    21  O   -0.560861
    22  H    0.387574
    23  C   -0.205176
    24  H    0.168982
    25  H    0.142638
    26  O   -0.534344
    27  H    0.385692
 Sum of Mulliken atomic charges =   0.00000

 Dipole moment (field-independent basis, Debye):
    X=             -4.2904    Y=             -0.0619    Z=             -2.6576  Tot=              5.0472
 Quadrupole moment (field-independent basis, Debye-Ang):
   XX=            -82.4757   YY=            -70.7957   ZZ=            -72.9708
   XY=             -4.9591   XZ=              6.4601   YZ=              3.7813

 Normal termination of Gaussian 09 at Fri May 17 12:32:00 2024.
