 Gaussian 09, Revision C.01,
 Gaussian 09:  AM64L-G09RevC.01 23-Sep-2011

 ------------------------------------------------
 # mpw1pw91/6-31+G** nmr scrf=(pcm,solvent=water)
 ------------------------------------------------

 99/9=1/99;
 -------
 comment
 -------
 Charge =  0 Multiplicity = 1

                         Standard orientation:
 ---------------------------------------------------------------------
 Center     Atomic      Atomic             Coordinates (Angstroms)
 Number     Number       Type             X           Y           Z
 ---------------------------------------------------------------------
      1          6           0        2.360570    0.027422   -0.287024
      2          6           0        0.971280    0.045540   -0.947675
      3          7           0        0.205831   -1.103606   -0.350551
      4          6           0        1.104592   -1.787304    0.613501
      5          6           0        2.514608   -1.440611    0.135492
      6          6           0       -1.046214   -0.577809    0.243376
      7          6           0       -0.829362    0.929281    0.446683
      8          6           0        0.098027    1.312283   -0.719902
      9          1           0        3.146909    0.370014   -0.966567
     10          1           0        2.382487    0.670771    0.598906
     11          1           0        1.087019   -0.119016   -2.025647
     12          1           0        0.913237   -2.866870    0.629092
     13          1           0        0.957116   -1.412531    1.636948
     14          1           0        2.791999   -2.060526   -0.726024
     15          1           0        3.267218   -1.591675    0.915779
     16          1           0       -1.232976   -1.063309    1.208058
     17          1           0       -1.764635    1.498363    0.440693
     18          1           0       -0.512583    1.493252   -1.608954
     19          8           0        0.818207    2.516532   -0.481250
     20          1           0        1.001842    2.521363    0.476281
     21          8           0       -0.095427    1.213928    1.649364
     22          1           0       -0.712394    1.135682    2.395137
     23          6           0       -2.249222   -0.874313   -0.656731
     24          1           0       -2.152530   -0.353468   -1.620198
     25          1           0       -2.286496   -1.951879   -0.864176
     26          8           0       -3.434375   -0.451230    0.028927
     27          1           0       -4.179945   -0.585702   -0.578131
 ---------------------------------------------------------------------

 SCF Done:  E(RmPW1PW91) =  -594.194758840     A.U. after   13 cycles

      1  C    Isotropic =   166.3575   Anisotropy =    19.2654

      2  C    Isotropic =   127.4532   Anisotropy =    55.1488

      3  N    Isotropic =   196.2043   Anisotropy =    80.2056

      4  C    Isotropic =   136.8844   Anisotropy =    60.8089

      5  C    Isotropic =   166.6365   Anisotropy =    19.9076

      6  C    Isotropic =   122.8276   Anisotropy =    38.5259

      7  C    Isotropic =   117.4626   Anisotropy =    30.9284

      8  C    Isotropic =   121.1624   Anisotropy =    50.2855

      9  H    Isotropic =    30.0014   Anisotropy =    10.8965

     10  H    Isotropic =    29.6957   Anisotropy =     6.2350

     11  H    Isotropic =    27.9838   Anisotropy =     8.4610

     12  H    Isotropic =    28.3181   Anisotropy =     9.7361

     13  H    Isotropic =    28.4945   Anisotropy =     7.3419

     14  H    Isotropic =    29.7605   Anisotropy =    11.1358

     15  H    Isotropic =    29.6507   Anisotropy =    11.5597

     16  H    Isotropic =    28.5973   Anisotropy =     5.2841

     17  H    Isotropic =    27.1694   Anisotropy =     7.1682

     18  H    Isotropic =    27.1021   Anisotropy =     6.0695

     19  O    Isotropic =   317.5848   Anisotropy =    28.2284

     20  H    Isotropic =    28.4182   Anisotropy =    14.7484

     21  O    Isotropic =   294.3754   Anisotropy =    60.2009

     22  H    Isotropic =    29.8966   Anisotropy =    19.8773

     23  C    Isotropic =   130.8584   Anisotropy =    66.9201

     24  H    Isotropic =    28.2363   Anisotropy =     3.7410

     25  H    Isotropic =    27.9508   Anisotropy =     4.9082

     26  O    Isotropic =   312.3519   Anisotropy =    90.6834

     27  H    Isotropic =    30.3475   Anisotropy =    21.4317

 The electronic state is 1-A.
 Alpha  occ. eigenvalues --  -19.26408 -19.25640 -19.25384 -14.41080 -10.30382
 Alpha  occ. eigenvalues --  -10.30273 -10.29587 -10.28040 -10.27320 -10.26592
 Alpha  occ. eigenvalues --  -10.24405 -10.24260  -1.07850  -1.05735  -1.04776
 Alpha  occ. eigenvalues --   -0.96010  -0.82863  -0.78545  -0.74998  -0.71800
 Alpha  occ. eigenvalues --   -0.66432  -0.61004  -0.60376  -0.57812  -0.55882
 Alpha  occ. eigenvalues --   -0.53673  -0.52384  -0.50166  -0.47724  -0.46826
 Alpha  occ. eigenvalues --   -0.45807  -0.45633  -0.43331  -0.42624  -0.40151
 Alpha  occ. eigenvalues --   -0.38974  -0.38541  -0.37041  -0.36361  -0.35382
 Alpha  occ. eigenvalues --   -0.35184  -0.33889  -0.33051  -0.31585  -0.29809
 Alpha  occ. eigenvalues --   -0.28820  -0.22750
 Alpha virt. eigenvalues --    0.00373   0.01180   0.01805   0.02285   0.03535
 Alpha virt. eigenvalues --    0.04244   0.04732   0.05394   0.05489   0.06159
 Alpha virt. eigenvalues --    0.07903   0.08682   0.08993   0.09355   0.09363

 Mulliken atomic charges:
              1
     1  C   -0.389636
     2  C    0.078097
     3  N   -0.096697
     4  C   -0.101228
     5  C   -0.467692
     6  C   -0.350325
     7  C    0.029483
     8  C   -0.206517
     9  H    0.173020
    10  H    0.167957
    11  H    0.161913
    12  H    0.159361
    13  H    0.161866
    14  H    0.175314
    15  H    0.175327
    16  H    0.171593
    17  H    0.179756
    18  H    0.178244
    19  O   -0.518325
    20  H    0.386713
    21  O   -0.640035
    22  H    0.405394
    23  C    0.016070
    24  H    0.155810
    25  H    0.166796
    26  O   -0.562840
    27  H    0.390583
 Sum of Mulliken atomic charges =   0.00000

 Dipole moment (field-independent basis, Debye):
    X=             -1.8376    Y=             -1.9703    Z=              0.7290  Tot=              2.7911
 Quadrupole moment (field-independent basis, Debye-Ang):
   XX=            -66.0877   YY=            -81.2350   ZZ=            -67.6579
   XY=             -2.3931   XZ=              5.7664   YZ=              3.1864

 Normal termination of Gaussian 09 at Fri May 17 12:31:18 2024.
