 Gaussian 09, Revision C.01,
 Gaussian 09:  AM64L-G09RevC.01 23-Sep-2011

 ------------------------------------------------
 # mpw1pw91/6-31+G** nmr scrf=(pcm,solvent=water)
 ------------------------------------------------

 99/9=1/99;
 -------
 comment
 -------
 Charge =  0 Multiplicity = 1

                         Standard orientation:
 ---------------------------------------------------------------------
 Center     Atomic      Atomic             Coordinates (Angstroms)
 Number     Number       Type             X           Y           Z
 ---------------------------------------------------------------------
      1          6           0       -2.634544    0.140433    0.195988
      2          6           0       -1.285323    0.314138    0.926888
      3          7           0       -0.480116   -0.937206    0.647517
      4          6           0       -1.328230   -1.822916   -0.184216
      5          6           0       -2.343117   -0.912362   -0.884681
      6          6           0        0.767651   -0.520834   -0.015310
      7          6           0        0.997681    0.896682    0.532296
      8          6           0       -0.408204    1.502537    0.476736
      9          1           0       -3.385616   -0.238496    0.898212
     10          1           0       -3.012815    1.082565   -0.212299
     11          1           0       -1.445143    0.407574    2.007185
     12          1           0       -1.853590   -2.539141    0.461254
     13          1           0       -0.707269   -2.402962   -0.873308
     14          1           0       -3.239090   -1.449199   -1.213692
     15          1           0       -1.888339   -0.438902   -1.761927
     16          1           0        0.651526   -0.444319   -1.110488
     17          1           0        1.332077    0.841893    1.573333
     18          1           0       -0.524725    2.370168    1.134583
     19          8           0       -0.609944    1.901568   -0.886823
     20          1           0       -1.368216    2.507031   -0.910292
     21          8           0        1.995854    1.636536   -0.167406
     22          1           0        1.591174    1.884718   -1.019657
     23          6           0        1.947103   -1.450416    0.257409
     24          1           0        2.147122   -1.481391    1.340230
     25          1           0        1.724467   -2.472157   -0.070137
     26          8           0        3.107772   -1.025734   -0.468626
     27          1           0        3.111682   -0.049470   -0.423444
 ---------------------------------------------------------------------

 SCF Done:  E(RmPW1PW91) =  -594.200280269     A.U. after   13 cycles

      1  C    Isotropic =   167.1251   Anisotropy =    24.6563

      2  C    Isotropic =   128.0251   Anisotropy =    51.7366

      3  N    Isotropic =   197.5464   Anisotropy =    67.7983

      4  C    Isotropic =   141.8216   Anisotropy =    53.9860

      5  C    Isotropic =   168.6968   Anisotropy =    23.7456

      6  C    Isotropic =   128.1395   Anisotropy =    54.5699

      7  C    Isotropic =   114.8856   Anisotropy =    46.5008

      8  C    Isotropic =   120.4661   Anisotropy =    22.3218

      9  H    Isotropic =    29.8665   Anisotropy =    12.5364

     10  H    Isotropic =    29.7530   Anisotropy =     9.0821

     11  H    Isotropic =    28.0556   Anisotropy =     9.0894

     12  H    Isotropic =    28.9386   Anisotropy =    12.2051

     13  H    Isotropic =    28.7817   Anisotropy =     8.6559

     14  H    Isotropic =    30.0827   Anisotropy =    12.7700

     15  H    Isotropic =    29.7848   Anisotropy =     7.7437

     16  H    Isotropic =    28.8152   Anisotropy =     4.1512

     17  H    Isotropic =    27.6095   Anisotropy =     4.0801

     18  H    Isotropic =    27.6196   Anisotropy =     8.5794

     19  O    Isotropic =   308.5320   Anisotropy =    35.7694

     20  H    Isotropic =    29.4597   Anisotropy =    20.6069

     21  O    Isotropic =   299.4169   Anisotropy =    33.0912

     22  H    Isotropic =    28.6948   Anisotropy =    14.1862

     23  C    Isotropic =   125.6574   Anisotropy =    58.7553

     24  H    Isotropic =    27.8605   Anisotropy =     4.3408

     25  H    Isotropic =    27.7219   Anisotropy =     4.6163

     26  O    Isotropic =   315.0073   Anisotropy =    40.3323

     27  H    Isotropic =    28.1465   Anisotropy =    20.2807

 The electronic state is 1-A.
 Alpha  occ. eigenvalues --  -19.26897 -19.26543 -19.24763 -14.41526 -10.30958
 Alpha  occ. eigenvalues --  -10.30881 -10.29248 -10.28020 -10.27928 -10.26864
 Alpha  occ. eigenvalues --  -10.24845 -10.24286  -1.08539  -1.05944  -1.04701
 Alpha  occ. eigenvalues --   -0.96569  -0.82777  -0.79591  -0.74925  -0.71755
 Alpha  occ. eigenvalues --   -0.66910  -0.62824  -0.60062  -0.58461  -0.55948
 Alpha  occ. eigenvalues --   -0.53202  -0.52294  -0.50482  -0.48872  -0.47089
 Alpha  occ. eigenvalues --   -0.45305  -0.44939  -0.43921  -0.42103  -0.40519
 Alpha  occ. eigenvalues --   -0.40204  -0.39069  -0.38322  -0.36417  -0.35772
 Alpha  occ. eigenvalues --   -0.35188  -0.34541  -0.34096  -0.30629  -0.29555
 Alpha  occ. eigenvalues --   -0.29354  -0.23507
 Alpha virt. eigenvalues --    0.00212   0.01701   0.02009   0.02110   0.04080
 Alpha virt. eigenvalues --    0.04174   0.04561   0.04800   0.05537   0.07110
 Alpha virt. eigenvalues --    0.07481   0.08089   0.08548   0.09021   0.09644

 Mulliken atomic charges:
              1
     1  C   -0.539283
     2  C    0.108063
     3  N   -0.120533
     4  C   -0.249519
     5  C   -0.201787
     6  C   -0.304059
     7  C   -0.198799
     8  C    0.230972
     9  H    0.180569
    10  H    0.161937
    11  H    0.169306
    12  H    0.164948
    13  H    0.165080
    14  H    0.170709
    15  H    0.180477
    16  H    0.183529
    17  H    0.194678
    18  H    0.174178
    19  O   -0.640154
    20  H    0.404722
    21  O   -0.577952
    22  H    0.402404
    23  C   -0.211448
    24  H    0.154961
    25  H    0.159247
    26  O   -0.557720
    27  H    0.395474
 Sum of Mulliken atomic charges =   0.00000

 Dipole moment (field-independent basis, Debye):
    X=             -6.0818    Y=              2.6035    Z=              0.4926  Tot=              6.6340
 Quadrupole moment (field-independent basis, Debye-Ang):
   XX=            -82.4160   YY=            -69.7169   ZZ=            -73.0681
   XY=             -0.2863   XZ=              2.4791   YZ=              0.4640

 Normal termination of Gaussian 09 at Fri May 17 12:24:53 2024.
