 Gaussian 09, Revision C.01,
 Gaussian 09:  AM64L-G09RevC.01 23-Sep-2011

 ------------------------------------------------
 # mpw1pw91/6-31+G** nmr scrf=(pcm,solvent=water)
 ------------------------------------------------

 99/9=1/99;
 -------
 comment
 -------
 Charge =  0 Multiplicity = 1

                         Standard orientation:
 ---------------------------------------------------------------------
 Center     Atomic      Atomic             Coordinates (Angstroms)
 Number     Number       Type             X           Y           Z
 ---------------------------------------------------------------------
      1          6           0       -1.712785    1.401427   -0.256065
      2          6           0       -0.753466    0.428645   -1.007727
      3          7           0        0.630272    0.692884   -0.507049
      4          6           0        0.580506    2.041285    0.094925
      5          6           0       -0.810936    2.170688    0.730880
      6          6           0        1.007385   -0.397298    0.446547
      7          6           0       -0.175380   -1.368384    0.527113
      8          6           0       -0.949825   -1.083235   -0.767717
      9          1           0       -2.172123    2.087745   -0.975326
     10          1           0       -2.523499    0.867563    0.245475
     11          1           0       -0.800408    0.635785   -2.082012
     12          1           0        0.700841    2.784716   -0.703877
     13          1           0        1.409885    2.173218    0.795223
     14          1           0       -1.119081    3.212432    0.866810
     15          1           0       -0.817831    1.685796    1.712634
     16          1           0        1.207543    0.018166    1.440749
     17          1           0        0.153874   -2.415455    0.576241
     18          1           0       -0.469327   -1.633258   -1.587684
     19          8           0       -2.294394   -1.526007   -0.610580
     20          1           0       -2.803209   -1.229564   -1.383896
     21          8           0       -0.973088   -1.065753    1.677116
     22          1           0       -1.878618   -1.346268    1.451740
     23          6           0        2.286566   -1.074600   -0.056544
     24          1           0        2.680622   -1.761123    0.699764
     25          1           0        2.073789   -1.657048   -0.966755
     26          8           0        3.300874   -0.102712   -0.311083
     27          1           0        2.846122    0.571712   -0.851842
 ---------------------------------------------------------------------

 SCF Done:  E(RmPW1PW91) =  -594.197429819     A.U. after   13 cycles

      1  C    Isotropic =   169.2892   Anisotropy =    25.5274

      2  C    Isotropic =   126.0604   Anisotropy =    63.0749

      3  N    Isotropic =   190.5820   Anisotropy =    64.7003

      4  C    Isotropic =   137.1072   Anisotropy =    60.4923

      5  C    Isotropic =   169.9078   Anisotropy =    20.6103

      6  C    Isotropic =   120.9337   Anisotropy =    31.3457

      7  C    Isotropic =   119.9195   Anisotropy =    27.5934

      8  C    Isotropic =   119.9578   Anisotropy =    50.0131

      9  H    Isotropic =    30.0845   Anisotropy =    12.4203

     10  H    Isotropic =    29.3863   Anisotropy =     6.9463

     11  H    Isotropic =    28.0340   Anisotropy =     8.9368

     12  H    Isotropic =    28.6045   Anisotropy =    11.6503

     13  H    Isotropic =    28.6452   Anisotropy =     8.9060

     14  H    Isotropic =    30.0654   Anisotropy =    12.5215

     15  H    Isotropic =    29.5864   Anisotropy =     8.2760

     16  H    Isotropic =    28.7546   Anisotropy =     6.3013

     17  H    Isotropic =    27.8202   Anisotropy =     7.2990

     18  H    Isotropic =    27.1097   Anisotropy =     5.9697

     19  O    Isotropic =   303.3779   Anisotropy =    49.6558

     20  H    Isotropic =    29.7927   Anisotropy =    19.6020

     21  O    Isotropic =   307.8452   Anisotropy =    51.5120

     22  H    Isotropic =    28.8549   Anisotropy =    17.1295

     23  C    Isotropic =   130.4227   Anisotropy =    47.8849

     24  H    Isotropic =    28.1051   Anisotropy =     6.7541

     25  H    Isotropic =    28.4906   Anisotropy =     6.0116

     26  O    Isotropic =   314.6102   Anisotropy =    36.9477

     27  H    Isotropic =    28.8597   Anisotropy =    15.3945

 The electronic state is 1-A.
 Alpha  occ. eigenvalues --  -19.26930 -19.25311 -19.24998 -14.41955 -10.30967
 Alpha  occ. eigenvalues --  -10.30689 -10.29325 -10.28192 -10.27956 -10.26933
 Alpha  occ. eigenvalues --  -10.24243 -10.24041  -1.08183  -1.05454  -1.04986
 Alpha  occ. eigenvalues --   -0.96575  -0.82509  -0.78895  -0.75632  -0.71508
 Alpha  occ. eigenvalues --   -0.66788  -0.61994  -0.60019  -0.58952  -0.55012
 Alpha  occ. eigenvalues --   -0.52773  -0.52116  -0.50580  -0.48782  -0.48121
 Alpha  occ. eigenvalues --   -0.45296  -0.44865  -0.43158  -0.42846  -0.41365
 Alpha  occ. eigenvalues --   -0.39400  -0.38457  -0.37634  -0.36373  -0.35494
 Alpha  occ. eigenvalues --   -0.34683  -0.34067  -0.32957  -0.30688  -0.29687
 Alpha  occ. eigenvalues --   -0.29269  -0.24204
 Alpha virt. eigenvalues --    0.00168   0.01391   0.02084   0.02427   0.03618
 Alpha virt. eigenvalues --    0.04280   0.04612   0.04836   0.05064   0.07016
 Alpha virt. eigenvalues --    0.07735   0.08319   0.08840   0.08977   0.09555

 Mulliken atomic charges:
              1
     1  C   -0.469262
     2  C    0.026196
     3  N   -0.236099
     4  C   -0.238406
     5  C   -0.218600
     6  C   -0.012422
     7  C    0.065874
     8  C   -0.214838
     9  H    0.171907
    10  H    0.182861
    11  H    0.174694
    12  H    0.168949
    13  H    0.171145
    14  H    0.168608
    15  H    0.182065
    16  H    0.182904
    17  H    0.163128
    18  H    0.177779
    19  O   -0.590765
    20  H    0.397735
    21  O   -0.546349
    22  H    0.385248
    23  C   -0.262385
    24  H    0.169002
    25  H    0.149699
    26  O   -0.531019
    27  H    0.382353
 Sum of Mulliken atomic charges =   0.00000

 Dipole moment (field-independent basis, Debye):
    X=             -3.9093    Y=              0.6638    Z=             -2.9555  Tot=              4.9456
 Quadrupole moment (field-independent basis, Debye-Ang):
   XX=            -83.1363   YY=            -69.3737   ZZ=            -73.1030
   XY=             -1.3188   XZ=              6.1769   YZ=              1.7267

 Normal termination of Gaussian 09 at Fri May 17 12:28:26 2024.
