 Gaussian 09, Revision C.01,
 Gaussian 09:  AM64L-G09RevC.01 23-Sep-2011

 ------------------------------------------------
 # mpw1pw91/6-31+G** nmr scrf=(pcm,solvent=water)
 ------------------------------------------------

 99/9=1/99;
 -------
 comment
 -------
 Charge =  0 Multiplicity = 1

                         Standard orientation:
 ---------------------------------------------------------------------
 Center     Atomic      Atomic             Coordinates (Angstroms)
 Number     Number       Type             X           Y           Z
 ---------------------------------------------------------------------
      1          6           0       -1.899416    1.161487   -0.285310
      2          6           0       -0.744556    0.376221   -0.929058
      3          7           0        0.499362    0.809101   -0.203292
      4          6           0        0.133404    1.920931    0.714768
      5          6           0       -1.201610    2.446842    0.180942
      6          6           0        1.116899   -0.375811    0.450349
      7          6           0        0.077747   -1.501704    0.422225
      8          6           0       -0.787383   -1.170418   -0.817498
      9          1           0       -2.721656    1.339738   -0.984780
     10          1           0       -2.306282    0.620599    0.577771
     11          1           0       -0.667165    0.663334   -1.984491
     12          1           0        0.918392    2.685383    0.732288
     13          1           0        0.007612    1.557280    1.745841
     14          1           0       -1.035571    3.118469   -0.670184
     15          1           0       -1.763046    2.997217    0.942337
     16          1           0        1.381512   -0.127416    1.484261
     17          1           0        0.531072   -2.493366    0.339945
     18          1           0       -0.318069   -1.608658   -1.703741
     19          8           0       -2.090523   -1.730387   -0.722201
     20          1           0       -2.281777   -1.741383    0.236169
     21          8           0       -0.741899   -1.564851    1.602939
     22          1           0       -0.924347   -0.659750    1.907559
     23          6           0        2.409631   -0.746507   -0.288267
     24          1           0        2.969162   -1.503708    0.270215
     25          1           0        2.176312   -1.160339   -1.281975
     26          8           0        3.244091    0.404589   -0.406604
     27          1           0        2.616668    1.107830   -0.670148
 ---------------------------------------------------------------------

 SCF Done:  E(RmPW1PW91) =  -594.196781325     A.U. after   13 cycles

      1  C    Isotropic =   164.8735   Anisotropy =    17.8167

      2  C    Isotropic =   127.0072   Anisotropy =    55.5946

      3  N    Isotropic =   201.1692   Anisotropy =    80.6582

      4  C    Isotropic =   134.6807   Anisotropy =    62.1799

      5  C    Isotropic =   166.2858   Anisotropy =    21.6330

      6  C    Isotropic =   120.5711   Anisotropy =    28.0336

      7  C    Isotropic =   116.8474   Anisotropy =    30.4337

      8  C    Isotropic =   121.7490   Anisotropy =    47.5674

      9  H    Isotropic =    29.7528   Anisotropy =    10.7137

     10  H    Isotropic =    30.0819   Anisotropy =     6.3387

     11  H    Isotropic =    27.8477   Anisotropy =     8.4184

     12  H    Isotropic =    28.0923   Anisotropy =     9.2121

     13  H    Isotropic =    28.8256   Anisotropy =     8.2822

     14  H    Isotropic =    29.6401   Anisotropy =    11.1153

     15  H    Isotropic =    29.5411   Anisotropy =    11.7470

     16  H    Isotropic =    28.6234   Anisotropy =     6.0932

     17  H    Isotropic =    27.9293   Anisotropy =     7.0718

     18  H    Isotropic =    27.2802   Anisotropy =     6.4098

     19  O    Isotropic =   313.1945   Anisotropy =    28.8308

     20  H    Isotropic =    28.2908   Anisotropy =    14.7517

     21  O    Isotropic =   292.3501   Anisotropy =    69.5225

     22  H    Isotropic =    30.6798   Anisotropy =    14.5809

     23  C    Isotropic =   132.7410   Anisotropy =    50.9567

     24  H    Isotropic =    28.1306   Anisotropy =     6.7350

     25  H    Isotropic =    28.5623   Anisotropy =     5.8365

     26  O    Isotropic =   312.7988   Anisotropy =    41.5913

     27  H    Isotropic =    28.7030   Anisotropy =    16.4291

 The electronic state is 1-A.
 Alpha  occ. eigenvalues --  -19.27471 -19.25635 -19.25019 -14.42234 -10.31359
 Alpha  occ. eigenvalues --  -10.30652 -10.29629 -10.28812 -10.28026 -10.27578
 Alpha  occ. eigenvalues --  -10.25071 -10.24974  -1.08610  -1.05531  -1.05258
 Alpha  occ. eigenvalues --   -0.96735  -0.83471  -0.79167  -0.75748  -0.72019
 Alpha  occ. eigenvalues --   -0.66988  -0.62931  -0.61123  -0.57994  -0.56273
 Alpha  occ. eigenvalues --   -0.53668  -0.52556  -0.49860  -0.49121  -0.48233
 Alpha  occ. eigenvalues --   -0.45334  -0.45055  -0.43562  -0.43005  -0.42310
 Alpha  occ. eigenvalues --   -0.40018  -0.38427  -0.38294  -0.36662  -0.36056
 Alpha  occ. eigenvalues --   -0.35357  -0.34926  -0.34005  -0.31833  -0.29685
 Alpha  occ. eigenvalues --   -0.29425  -0.23929
 Alpha virt. eigenvalues --    0.00103   0.01341   0.01891   0.02432   0.03681
 Alpha virt. eigenvalues --    0.04345   0.04800   0.04943   0.05133   0.06938
 Alpha virt. eigenvalues --    0.07860   0.07914   0.08687   0.09061   0.09287

 Mulliken atomic charges:
              1
     1  C   -0.286861
     2  C   -0.219570
     3  N   -0.298387
     4  C   -0.114255
     5  C   -0.410784
     6  C    0.168738
     7  C   -0.172028
     8  C   -0.061204
     9  H    0.183942
    10  H    0.160177
    11  H    0.172917
    12  H    0.171407
    13  H    0.156534
    14  H    0.182426
    15  H    0.181667
    16  H    0.188784
    17  H    0.181773
    18  H    0.181394
    19  O   -0.508182
    20  H    0.391028
    21  O   -0.573741
    22  H    0.401567
    23  C   -0.254260
    24  H    0.171190
    25  H    0.150006
    26  O   -0.531104
    27  H    0.386824
 Sum of Mulliken atomic charges =   0.00000

 Dipole moment (field-independent basis, Debye):
    X=             -1.7776    Y=              2.2918    Z=              1.4622  Tot=              3.2481
 Quadrupole moment (field-independent basis, Debye-Ang):
   XX=            -89.9751   YY=            -73.3968   ZZ=            -72.6158
   XY=            -10.0914   XZ=             -2.5178   YZ=              1.7086

 Normal termination of Gaussian 09 at Fri May 17 12:14:56 2024.
