 Gaussian 09, Revision C.01,
 Gaussian 09:  AM64L-G09RevC.01 23-Sep-2011

 ------------------------------------------------
 # mpw1pw91/6-31+G** nmr scrf=(pcm,solvent=water)
 ------------------------------------------------

 99/9=1/99;
 -------
 comment
 -------
 Charge =  0 Multiplicity = 1

                         Standard orientation:
 ---------------------------------------------------------------------
 Center     Atomic      Atomic             Coordinates (Angstroms)
 Number     Number       Type             X           Y           Z
 ---------------------------------------------------------------------
      1          6           0       -2.545976    0.061428    0.357031
      2          6           0       -1.114929    0.327163    0.864775
      3          7           0       -0.262499   -0.787438    0.323976
      4          6           0       -1.053341   -1.482859   -0.708519
      5          6           0       -2.487258   -1.378299   -0.190889
      6          6           0        1.024660   -0.219932   -0.128141
      7          6           0        1.046556    1.214597    0.444676
      8          6           0       -0.430384    1.623535    0.416860
      9          1           0       -3.290673    0.184936    1.148449
     10          1           0       -2.795985    0.756321   -0.449458
     11          1           0       -1.082185    0.303615    1.961572
     12          1           0       -0.715972   -2.518103   -0.831427
     13          1           0       -0.963939   -0.987151   -1.690635
     14          1           0       -2.650595   -2.104505    0.614128
     15          1           0       -3.229139   -1.568817   -0.972569
     16          1           0        1.050955   -0.152240   -1.226817
     17          1           0        1.400404    1.199407    1.485496
     18          1           0       -0.643032    2.463894    1.091335
     19          8           0       -0.801802    1.960431   -0.923201
     20          1           0       -0.011044    2.379640   -1.311388
     21          8           0        1.805232    2.149253   -0.321622
     22          1           0        2.675887    1.759217   -0.506602
     23          6           0        2.214104   -1.057842    0.330590
     24          1           0        3.148112   -0.615747   -0.035396
     25          1           0        2.253752   -1.075336    1.429553
     26          8           0        2.172058   -2.390532   -0.188907
     27          1           0        1.366439   -2.793028    0.177471
 ---------------------------------------------------------------------

 SCF Done:  E(RmPW1PW91) =  -594.198616480     A.U. after   13 cycles

      1  C    Isotropic =   171.9137   Anisotropy =    21.5244

      2  C    Isotropic =   128.1004   Anisotropy =    51.9635

      3  N    Isotropic =   188.2344   Anisotropy =    93.9103

      4  C    Isotropic =   135.2919   Anisotropy =    57.2154

      5  C    Isotropic =   164.7934   Anisotropy =    25.8356

      6  C    Isotropic =   123.1883   Anisotropy =    44.9216

      7  C    Isotropic =   116.1828   Anisotropy =    49.2795

      8  C    Isotropic =   121.5999   Anisotropy =    25.7235

      9  H    Isotropic =    29.8896   Anisotropy =    11.7942

     10  H    Isotropic =    29.3067   Anisotropy =     7.5471

     11  H    Isotropic =    27.9504   Anisotropy =     8.7165

     12  H    Isotropic =    28.4752   Anisotropy =     8.6180

     13  H    Isotropic =    28.8392   Anisotropy =     7.0842

     14  H    Isotropic =    29.5193   Anisotropy =    10.9458

     15  H    Isotropic =    29.5296   Anisotropy =    11.5376

     16  H    Isotropic =    28.6813   Anisotropy =     4.2610

     17  H    Isotropic =    27.5391   Anisotropy =     4.3695

     18  H    Isotropic =    27.6909   Anisotropy =     8.8832

     19  O    Isotropic =   309.6201   Anisotropy =    37.1690

     20  H    Isotropic =    28.4686   Anisotropy =    18.1464

     21  O    Isotropic =   298.1147   Anisotropy =    24.7692

     22  H    Isotropic =    29.7335   Anisotropy =    18.4670

     23  C    Isotropic =   126.8101   Anisotropy =    49.7283

     24  H    Isotropic =    27.9232   Anisotropy =     5.7361

     25  H    Isotropic =    28.0547   Anisotropy =     5.8465

     26  O    Isotropic =   306.6281   Anisotropy =    27.2751

     27  H    Isotropic =    29.8825   Anisotropy =    14.3971

 The electronic state is 1-A.
 Alpha  occ. eigenvalues --  -19.27170 -19.25644 -19.25210 -14.41435 -10.31250
 Alpha  occ. eigenvalues --  -10.30343 -10.29699 -10.28141 -10.27945 -10.26901
 Alpha  occ. eigenvalues --  -10.24560 -10.24464  -1.08399  -1.05806  -1.05029
 Alpha  occ. eigenvalues --   -0.96457  -0.83059  -0.79432  -0.75336  -0.72019
 Alpha  occ. eigenvalues --   -0.66478  -0.61798  -0.60594  -0.57945  -0.55217
 Alpha  occ. eigenvalues --   -0.54196  -0.52563  -0.50982  -0.49375  -0.48127
 Alpha  occ. eigenvalues --   -0.45232  -0.43868  -0.43544  -0.42674  -0.41429
 Alpha  occ. eigenvalues --   -0.39029  -0.38561  -0.38046  -0.36632  -0.35492
 Alpha  occ. eigenvalues --   -0.35028  -0.33771  -0.33624  -0.31034  -0.30597
 Alpha  occ. eigenvalues --   -0.29331  -0.23303
 Alpha virt. eigenvalues --    0.00536   0.01228   0.02053   0.02385   0.03585
 Alpha virt. eigenvalues --    0.04379   0.04639   0.05253   0.05297   0.07144
 Alpha virt. eigenvalues --    0.07444   0.08105   0.08663   0.08825   0.10056

 Mulliken atomic charges:
              1
     1  C   -0.518977
     2  C    0.060069
     3  N   -0.236952
     4  C   -0.179173
     5  C   -0.406427
     6  C    0.043839
     7  C   -0.227313
     8  C    0.162972
     9  H    0.173862
    10  H    0.188149
    11  H    0.168499
    12  H    0.157336
    13  H    0.154840
    14  H    0.177530
    15  H    0.175864
    16  H    0.174137
    17  H    0.176731
    18  H    0.161807
    19  O   -0.594476
    20  H    0.392993
    21  O   -0.574496
    22  H    0.389017
    23  C   -0.172878
    24  H    0.155215
    25  H    0.160438
    26  O   -0.540771
    27  H    0.378166
 Sum of Mulliken atomic charges =   0.00000

 Dipole moment (field-independent basis, Debye):
    X=              0.2871    Y=              0.4005    Z=              1.8011  Tot=              1.8673
 Quadrupole moment (field-independent basis, Debye-Ang):
   XX=            -70.7055   YY=            -81.3037   ZZ=            -72.1215
   XY=             10.0733   XZ=             -0.6880   YZ=              0.7434

 Normal termination of Gaussian 09 at Fri May 17 12:26:58 2024.
