 Gaussian 09, Revision C.01,
 Gaussian 09:  AM64L-G09RevC.01 23-Sep-2011

 ------------------------------------------------
 # mpw1pw91/6-31+G** nmr scrf=(pcm,solvent=water)
 ------------------------------------------------

 99/9=1/99;
 -------
 comment
 -------
 Charge =  0 Multiplicity = 1

                         Standard orientation:
 ---------------------------------------------------------------------
 Center     Atomic      Atomic             Coordinates (Angstroms)
 Number     Number       Type             X           Y           Z
 ---------------------------------------------------------------------
      1          6           0       -2.474260    0.343704    0.345490
      2          6           0       -1.023738    0.311049    0.849811
      3          7           0       -0.363480   -0.843852    0.137584
      4          6           0       -1.353299   -1.456180   -0.771511
      5          6           0       -2.706931   -1.092014   -0.154680
      6          6           0        0.877309   -0.364786   -0.493594
      7          6           0        1.241393    0.879658    0.341826
      8          6           0       -0.127160    1.533932    0.582601
      9          1           0       -3.178788    0.649698    1.124494
     10          1           0       -2.566108    1.044514   -0.490920
     11          1           0       -1.006805    0.117718    1.930203
     12          1           0       -1.203578   -2.538704   -0.853178
     13          1           0       -1.269725   -1.034289   -1.787356
     14          1           0       -2.932537   -1.759911    0.685359
     15          1           0       -3.526010   -1.168815   -0.876457
     16          1           0        0.707525   -0.043341   -1.535971
     17          1           0        1.669041    0.563860    1.298338
     18          1           0       -0.120028    2.236442    1.422551
     19          8           0       -0.437454    2.231938   -0.632692
     20          1           0       -1.148098    2.864503   -0.440312
     21          8           0        2.188581    1.739686   -0.272470
     22          1           0        1.682934    2.237738   -0.941318
     23          6           0        1.953151   -1.449596   -0.501976
     24          1           0        1.670689   -2.246006   -1.207427
     25          1           0        2.906440   -1.027596   -0.838064
     26          8           0        2.159498   -1.989587    0.804587
     27          1           0        1.255617   -2.079756    1.163759
 ---------------------------------------------------------------------

 SCF Done:  E(RmPW1PW91) =  -594.204085500     A.U. after   13 cycles

      1  C    Isotropic =   170.0758   Anisotropy =    19.4901

      2  C    Isotropic =   127.6072   Anisotropy =    48.9336

      3  N    Isotropic =   202.1996   Anisotropy =    68.2364

      4  C    Isotropic =   139.6851   Anisotropy =    56.2970

      5  C    Isotropic =   165.1670   Anisotropy =    22.8620

      6  C    Isotropic =   122.8088   Anisotropy =    50.9274

      7  C    Isotropic =   120.1853   Anisotropy =    57.6787

      8  C    Isotropic =   121.3833   Anisotropy =    28.1951

      9  H    Isotropic =    29.9041   Anisotropy =    11.6674

     10  H    Isotropic =    29.6967   Anisotropy =     7.1813

     11  H    Isotropic =    28.0267   Anisotropy =     8.6109

     12  H    Isotropic =    28.3935   Anisotropy =     9.7719

     13  H    Isotropic =    29.2700   Anisotropy =     8.4423

     14  H    Isotropic =    29.5123   Anisotropy =    10.9818

     15  H    Isotropic =    29.4805   Anisotropy =    11.7318

     16  H    Isotropic =    29.0165   Anisotropy =     2.7550

     17  H    Isotropic =    27.2079   Anisotropy =     3.3624

     18  H    Isotropic =    27.6109   Anisotropy =     8.2796

     19  O    Isotropic =   303.3285   Anisotropy =    42.8776

     20  H    Isotropic =    29.7167   Anisotropy =    20.8231

     21  O    Isotropic =   306.1173   Anisotropy =    34.3906

     22  H    Isotropic =    28.7948   Anisotropy =    14.8242

     23  C    Isotropic =   135.8871   Anisotropy =    57.5486

     24  H    Isotropic =    27.8134   Anisotropy =     7.7623

     25  H    Isotropic =    27.8822   Anisotropy =     6.4978

     26  O    Isotropic =   329.0864   Anisotropy =    51.4943

     27  H    Isotropic =    29.0463   Anisotropy =    16.4721

 The electronic state is 1-A.
 Alpha  occ. eigenvalues --  -19.26585 -19.25647 -19.24787 -14.41656 -10.30714
 Alpha  occ. eigenvalues --  -10.30393 -10.29119 -10.28005 -10.27834 -10.27017
 Alpha  occ. eigenvalues --  -10.24760 -10.24708  -1.08071  -1.05322  -1.05010
 Alpha  occ. eigenvalues --   -0.96507  -0.82908  -0.79533  -0.74905  -0.71729
 Alpha  occ. eigenvalues --   -0.66692  -0.61995  -0.60576  -0.57830  -0.56116
 Alpha  occ. eigenvalues --   -0.53092  -0.51043  -0.49740  -0.49297  -0.48365
 Alpha  occ. eigenvalues --   -0.45747  -0.44652  -0.43791  -0.41894  -0.40018
 Alpha  occ. eigenvalues --   -0.39809  -0.39191  -0.37828  -0.36674  -0.35740
 Alpha  occ. eigenvalues --   -0.35110  -0.34438  -0.33061  -0.31033  -0.30161
 Alpha  occ. eigenvalues --   -0.28551  -0.23599
 Alpha virt. eigenvalues --    0.00241   0.01561   0.02013   0.02283   0.04220
 Alpha virt. eigenvalues --    0.04272   0.04629   0.05016   0.05565   0.07245
 Alpha virt. eigenvalues --    0.07484   0.08261   0.08607   0.09072   0.09374

 Mulliken atomic charges:
              1
     1  C   -0.473348
     2  C   -0.016213
     3  N   -0.258977
     4  C   -0.267254
     5  C   -0.343660
     6  C    0.406258
     7  C   -0.419016
     8  C    0.290980
     9  H    0.178478
    10  H    0.173878
    11  H    0.171767
    12  H    0.168518
    13  H    0.152479
    14  H    0.179277
    15  H    0.177457
    16  H    0.156033
    17  H    0.190396
    18  H    0.173100
    19  O   -0.654702
    20  H    0.404925
    21  O   -0.529895
    22  H    0.385203
    23  C   -0.386429
    24  H    0.151955
    25  H    0.163893
    26  O   -0.563776
    27  H    0.388671
 Sum of Mulliken atomic charges =   0.00000

 Dipole moment (field-independent basis, Debye):
    X=             -6.4307    Y=              1.9987    Z=             -0.4960  Tot=              6.7524
 Quadrupole moment (field-independent basis, Debye-Ang):
   XX=            -82.0368   YY=            -71.8619   ZZ=            -70.7234
   XY=             -1.3530   XZ=             -4.8155   YZ=              4.4430

 Normal termination of Gaussian 09 at Fri May 17 12:10:03 2024.
