 Gaussian 09, Revision C.01,
 Gaussian 09:  AM64L-G09RevC.01 23-Sep-2011

 ------------------------------------------------
 # mpw1pw91/6-31+G** nmr scrf=(pcm,solvent=water)
 ------------------------------------------------

 99/9=1/99;
 -------
 comment
 -------
 Charge =  0 Multiplicity = 1

                         Standard orientation:
 ---------------------------------------------------------------------
 Center     Atomic      Atomic             Coordinates (Angstroms)
 Number     Number       Type             X           Y           Z
 ---------------------------------------------------------------------
      1          6           0        1.938063   -1.644461   -0.162879
      2          6           0        1.132928   -0.450949   -0.704404
      3          7           0       -0.318433   -0.801153   -0.518973
      4          6           0       -0.371299   -2.085128    0.229787
      5          6           0        1.002323   -2.254149    0.890399
      6          6           0       -0.986415    0.329974    0.174077
      7          6           0       -0.045924    1.520093   -0.029095
      8          6           0        1.333626    0.865665    0.049653
      9          1           0        2.125996   -2.368890   -0.964187
     10          1           0        2.907690   -1.329720    0.236740
     11          1           0        1.352552   -0.271670   -1.764535
     12          1           0       -1.200980   -2.071701    0.941369
     13          1           0       -0.554416   -2.914305   -0.466482
     14          1           0        1.237159   -3.296996    1.126490
     15          1           0        1.048020   -1.676772    1.822066
     16          1           0       -1.059579    0.141056    1.257243
     17          1           0       -0.174682    1.944702   -1.036317
     18          1           0        1.555928    0.670303    1.109542
     19          8           0        2.389383    1.622751   -0.539701
     20          1           0        2.528417    2.402600    0.023863
     21          8           0       -0.291234    2.519357    0.959037
     22          1           0        0.259170    3.287418    0.730204
     23          6           0       -2.393284    0.584540   -0.358425
     24          1           0       -2.843918    1.421920    0.184476
     25          1           0       -2.343353    0.854906   -1.423118
     26          8           0       -3.268357   -0.532266   -0.166183
     27          1           0       -2.907414   -1.257016   -0.704441
 ---------------------------------------------------------------------

 SCF Done:  E(RmPW1PW91) =  -594.198240943     A.U. after   13 cycles

      1  C    Isotropic =   164.5599   Anisotropy =    22.0778

      2  C    Isotropic =   128.1572   Anisotropy =    57.1494

      3  N    Isotropic =   199.8437   Anisotropy =    74.5279

      4  C    Isotropic =   138.3835   Anisotropy =    60.1793

      5  C    Isotropic =   171.2719   Anisotropy =    19.0467

      6  C    Isotropic =   124.9706   Anisotropy =    41.2303

      7  C    Isotropic =   116.0598   Anisotropy =    36.0281

      8  C    Isotropic =   113.1624   Anisotropy =    28.5725

      9  H    Isotropic =    29.7940   Anisotropy =    11.9164

     10  H    Isotropic =    29.7208   Anisotropy =     9.6792

     11  H    Isotropic =    28.2450   Anisotropy =     6.9113

     12  H    Isotropic =    28.7560   Anisotropy =     7.0572

     13  H    Isotropic =    28.6164   Anisotropy =    11.3395

     14  H    Isotropic =    30.0357   Anisotropy =    12.6498

     15  H    Isotropic =    29.8160   Anisotropy =     8.8943

     16  H    Isotropic =    28.8221   Anisotropy =     5.6142

     17  H    Isotropic =    28.0040   Anisotropy =     1.6270

     18  H    Isotropic =    27.9870   Anisotropy =     4.0569

     19  O    Isotropic =   300.1737   Anisotropy =    41.3091

     20  H    Isotropic =    29.5752   Anisotropy =    19.1193

     21  O    Isotropic =   300.6484   Anisotropy =    39.5297

     22  H    Isotropic =    29.6546   Anisotropy =    19.3165

     23  C    Isotropic =   125.6067   Anisotropy =    47.8884

     24  H    Isotropic =    27.7880   Anisotropy =     5.5981

     25  H    Isotropic =    28.0603   Anisotropy =     6.0549

     26  O    Isotropic =   308.4701   Anisotropy =    24.9840

     27  H    Isotropic =    29.9458   Anisotropy =    14.0000

 The electronic state is 1-A.
 Alpha  occ. eigenvalues --  -19.26495 -19.26365 -19.25551 -14.41689 -10.30705
 Alpha  occ. eigenvalues --  -10.30360 -10.29382 -10.28234 -10.28011 -10.26983
 Alpha  occ. eigenvalues --  -10.24762 -10.24580  -1.07686  -1.05933  -1.05628
 Alpha  occ. eigenvalues --   -0.96711  -0.83038  -0.79597  -0.75588  -0.71707
 Alpha  occ. eigenvalues --   -0.66400  -0.62015  -0.60586  -0.57865  -0.56737
 Alpha  occ. eigenvalues --   -0.53773  -0.52499  -0.49700  -0.49430  -0.47953
 Alpha  occ. eigenvalues --   -0.45724  -0.45035  -0.43109  -0.41539  -0.40651
 Alpha  occ. eigenvalues --   -0.39919  -0.39198  -0.38756  -0.35921  -0.35626
 Alpha  occ. eigenvalues --   -0.34864  -0.34445  -0.34000  -0.32230  -0.30171
 Alpha  occ. eigenvalues --   -0.28265  -0.23606
 Alpha virt. eigenvalues --    0.00305   0.01054   0.01716   0.02430   0.03363
 Alpha virt. eigenvalues --    0.03971   0.04601   0.05018   0.05618   0.06809
 Alpha virt. eigenvalues --    0.07744   0.08112   0.08216   0.09122   0.09444

 Mulliken atomic charges:
              1
     1  C   -0.513885
     2  C    0.081917
     3  N   -0.221235
     4  C   -0.249596
     5  C   -0.253698
     6  C    0.045240
     7  C    0.009743
     8  C   -0.123132
     9  H    0.179094
    10  H    0.180534
    11  H    0.169837
    12  H    0.171815
    13  H    0.167820
    14  H    0.174966
    15  H    0.174811
    16  H    0.176615
    17  H    0.176814
    18  H    0.178242
    19  O   -0.548517
    20  H    0.381450
    21  O   -0.553624
    22  H    0.384739
    23  C   -0.354931
    24  H    0.169392
    25  H    0.158849
    26  O   -0.541414
    27  H    0.378154
 Sum of Mulliken atomic charges =   0.00000

 Dipole moment (field-independent basis, Debye):
    X=              3.2469    Y=              0.6026    Z=              0.4246  Tot=              3.3296
 Quadrupole moment (field-independent basis, Debye-Ang):
   XX=            -86.9351   YY=            -59.6729   ZZ=            -76.1408
   XY=              2.7139   XZ=              7.1424   YZ=              0.1522

 Normal termination of Gaussian 09 at Fri May 17 12:13:09 2024.
