 Gaussian 09, Revision C.01,
 Gaussian 09:  AM64L-G09RevC.01 23-Sep-2011

 ------------------------------------------------
 # mpw1pw91/6-31+G** nmr scrf=(pcm,solvent=water)
 ------------------------------------------------

 99/9=1/99;
 -------
 comment
 -------
 Charge =  0 Multiplicity = 1

                         Standard orientation:
 ---------------------------------------------------------------------
 Center     Atomic      Atomic             Coordinates (Angstroms)
 Number     Number       Type             X           Y           Z
 ---------------------------------------------------------------------
      1          6           0        2.650744   -0.069578    0.100898
      2          6           0        1.348551    0.355369   -0.608936
      3          7           0        0.477216   -0.874827   -0.685270
      4          6           0        1.238306   -1.981199   -0.058821
      5          6           0        2.241312   -1.319554    0.893737
      6          6           0       -0.786754   -0.561254    0.016196
      7          6           0       -0.916942    0.958138   -0.122423
      8          6           0        0.515522    1.420820    0.117721
      9          1           0        3.415214   -0.331367   -0.639916
     10          1           0        3.053943    0.734980    0.724626
     11          1           0        1.559867    0.731224   -1.617316
     12          1           0        1.773728   -2.543927   -0.834864
     13          1           0        0.554114   -2.677530    0.434892
     14          1           0        3.086555   -1.968414    1.145035
     15          1           0        1.743119   -1.036244    1.829431
     16          1           0       -0.721754   -0.788875    1.095271
     17          1           0       -1.200239    1.211320   -1.156678
     18          1           0        0.708727    1.389694    1.200481
     19          8           0        0.829846    2.714957   -0.395590
     20          1           0        0.324382    3.358754    0.128437
     21          8           0       -1.833445    1.544475    0.797728
     22          1           0       -2.652770    1.021642    0.696532
     23          6           0       -1.988790   -1.314244   -0.548874
     24          1           0       -2.125854   -1.070458   -1.606789
     25          1           0       -1.850478   -2.400065   -0.462388
     26          8           0       -3.204776   -0.910259    0.109900
     27          1           0       -3.153765   -1.231320    1.026854
 ---------------------------------------------------------------------

 SCF Done:  E(RmPW1PW91) =  -594.200311280     A.U. after   13 cycles

      1  C    Isotropic =   163.1632   Anisotropy =    24.4397

      2  C    Isotropic =   127.5205   Anisotropy =    56.9932

      3  N    Isotropic =   201.2800   Anisotropy =    65.9689

      4  C    Isotropic =   141.4026   Anisotropy =    53.2881

      5  C    Isotropic =   171.3564   Anisotropy =    20.0051

      6  C    Isotropic =   127.0091   Anisotropy =    48.2071

      7  C    Isotropic =   112.6796   Anisotropy =    26.8819

      8  C    Isotropic =   113.4594   Anisotropy =    29.0251

      9  H    Isotropic =    29.7953   Anisotropy =    11.7813

     10  H    Isotropic =    29.7214   Anisotropy =     9.4059

     11  H    Isotropic =    28.2404   Anisotropy =     6.9583

     12  H    Isotropic =    28.9643   Anisotropy =    11.9518

     13  H    Isotropic =    28.9347   Anisotropy =     8.4627

     14  H    Isotropic =    30.0724   Anisotropy =    12.6363

     15  H    Isotropic =    29.8319   Anisotropy =     8.7965

     16  H    Isotropic =    29.1484   Anisotropy =     5.4992

     17  H    Isotropic =    27.5995   Anisotropy =     1.6442

     18  H    Isotropic =    27.8529   Anisotropy =     3.5075

     19  O    Isotropic =   296.9024   Anisotropy =    42.4065

     20  H    Isotropic =    29.4239   Anisotropy =    18.9651

     21  O    Isotropic =   291.5524   Anisotropy =    35.1376

     22  H    Isotropic =    28.0908   Anisotropy =    19.8452

     23  C    Isotropic =   125.2848   Anisotropy =    59.8723

     24  H    Isotropic =    28.0055   Anisotropy =     3.9966

     25  H    Isotropic =    27.5409   Anisotropy =     4.9324

     26  O    Isotropic =   311.2354   Anisotropy =    65.5309

     27  H    Isotropic =    30.5489   Anisotropy =    16.6433

 The electronic state is 1-A.
 Alpha  occ. eigenvalues --  -19.26947 -19.26023 -19.25399 -14.41778 -10.30407
 Alpha  occ. eigenvalues --  -10.30181 -10.30048 -10.28296 -10.27962 -10.27023
 Alpha  occ. eigenvalues --  -10.24704 -10.24559  -1.07457  -1.06538  -1.05138
 Alpha  occ. eigenvalues --   -0.96924  -0.82854  -0.79706  -0.75386  -0.71733
 Alpha  occ. eigenvalues --   -0.66721  -0.62065  -0.60462  -0.58614  -0.55571
 Alpha  occ. eigenvalues --   -0.54017  -0.51796  -0.50162  -0.49425  -0.47927
 Alpha  occ. eigenvalues --   -0.45880  -0.44808  -0.43260  -0.42614  -0.41145
 Alpha  occ. eigenvalues --   -0.39802  -0.38790  -0.37686  -0.36815  -0.35683
 Alpha  occ. eigenvalues --   -0.35316  -0.34827  -0.33449  -0.31613  -0.29750
 Alpha  occ. eigenvalues --   -0.28848  -0.23763
 Alpha virt. eigenvalues --    0.00624   0.01478   0.01823   0.01907   0.03666
 Alpha virt. eigenvalues --    0.04039   0.04574   0.04890   0.05435   0.07037
 Alpha virt. eigenvalues --    0.07836   0.08019   0.08488   0.09117   0.09270

 Mulliken atomic charges:
              1
     1  C   -0.543972
     2  C    0.142085
     3  N   -0.144636
     4  C   -0.227066
     5  C   -0.239407
     6  C   -0.464848
     7  C    0.042646
     8  C   -0.054294
     9  H    0.178749
    10  H    0.179460
    11  H    0.170132
    12  H    0.166758
    13  H    0.166792
    14  H    0.174489
    15  H    0.174822
    16  H    0.179484
    17  H    0.174244
    18  H    0.173970
    19  O   -0.553674
    20  H    0.385918
    21  O   -0.556386
    22  H    0.403144
    23  C   -0.075371
    24  H    0.179505
    25  H    0.166480
    26  O   -0.598578
    27  H    0.399554
 Sum of Mulliken atomic charges =   0.00000

 Dipole moment (field-independent basis, Debye):
    X=              0.7087    Y=             -3.3456    Z=              2.7114  Tot=              4.3642
 Quadrupole moment (field-independent basis, Debye-Ang):
   XX=            -75.8338   YY=            -72.7104   ZZ=            -73.9513
   XY=             -0.1405   XZ=             -0.9117   YZ=             -1.4920

 Normal termination of Gaussian 09 at Fri May 17 12:10:46 2024.
