 Gaussian 09, Revision C.01,
 Gaussian 09:  AM64L-G09RevC.01 23-Sep-2011

 ------------------------------------------------
 # mpw1pw91/6-31+G** nmr scrf=(pcm,solvent=water)
 ------------------------------------------------

 99/9=1/99;
 -------
 comment
 -------
 Charge =  0 Multiplicity = 1

                         Standard orientation:
 ---------------------------------------------------------------------
 Center     Atomic      Atomic             Coordinates (Angstroms)
 Number     Number       Type             X           Y           Z
 ---------------------------------------------------------------------
      1          6           0        2.093736   -1.478966   -0.144227
      2          6           0        1.200264   -0.352400   -0.691704
      3          7           0       -0.217159   -0.828288   -0.552880
      4          6           0       -0.180611   -2.126827    0.165952
      5          6           0        1.183126   -2.192894    0.864742
      6          6           0       -1.002303    0.226874    0.135612
      7          6           0       -0.166980    1.499810   -0.024070
      8          6           0        1.262906    0.971075    0.085669
      9          1           0        2.374273   -2.165697   -0.951609
     10          1           0        3.017067   -1.085414    0.294005
     11          1           0        1.431298   -0.141933   -1.745433
     12          1           0       -0.269914   -2.952578   -0.552893
     13          1           0       -1.027480   -2.204758    0.852057
     14          1           0        1.500434   -3.217400    1.084735
     15          1           0        1.152473   -1.637803    1.810754
     16          1           0       -1.083749    0.021285    1.215710
     17          1           0       -0.308982    1.926824   -1.030137
     18          1           0        1.478037    0.782214    1.144145
     19          8           0        2.271451    1.879927   -0.347543
     20          1           0        2.111673    2.058230   -1.291221
     21          8           0       -0.525432    2.458612    0.967366
     22          1           0        0.021792    3.245859    0.805045
     23          6           0       -2.411001    0.381491   -0.415310
     24          1           0       -2.868796    1.283225    0.017622
     25          1           0       -2.363961    0.512398   -1.505677
     26          8           0       -3.178797   -0.779541   -0.077349
     27          1           0       -4.056649   -0.667391   -0.476729
 ---------------------------------------------------------------------

 SCF Done:  E(RmPW1PW91) =  -594.197655717     A.U. after   13 cycles

      1  C    Isotropic =   164.6344   Anisotropy =    22.5132

      2  C    Isotropic =   126.5659   Anisotropy =    55.3484

      3  N    Isotropic =   196.3940   Anisotropy =    77.1520

      4  C    Isotropic =   138.2963   Anisotropy =    59.3926

      5  C    Isotropic =   171.2993   Anisotropy =    18.5646

      6  C    Isotropic =   125.9955   Anisotropy =    40.2086

      7  C    Isotropic =   116.6329   Anisotropy =    37.9743

      8  C    Isotropic =   112.4568   Anisotropy =    29.0808

      9  H    Isotropic =    29.8091   Anisotropy =    11.8409

     10  H    Isotropic =    29.7014   Anisotropy =     9.5030

     11  H    Isotropic =    28.5227   Anisotropy =     6.8733

     12  H    Isotropic =    28.6184   Anisotropy =    11.2470

     13  H    Isotropic =    28.6687   Anisotropy =     7.2360

     14  H    Isotropic =    30.0619   Anisotropy =    12.5828

     15  H    Isotropic =    29.8514   Anisotropy =     8.8909

     16  H    Isotropic =    28.7838   Anisotropy =     5.2274

     17  H    Isotropic =    28.1740   Anisotropy =     1.7306

     18  H    Isotropic =    28.1820   Anisotropy =     3.5900

     19  O    Isotropic =   293.8913   Anisotropy =    92.2641

     20  H    Isotropic =    30.9323   Anisotropy =    16.5029

     21  O    Isotropic =   299.0060   Anisotropy =    42.7004

     22  H    Isotropic =    29.3557   Anisotropy =    18.9804

     23  C    Isotropic =   125.6777   Anisotropy =    47.9981

     24  H    Isotropic =    27.5875   Anisotropy =     5.0368

     25  H    Isotropic =    28.0285   Anisotropy =     5.1574

     26  O    Isotropic =   313.2107   Anisotropy =    89.0103

     27  H    Isotropic =    30.2713   Anisotropy =    21.6930

 The electronic state is 1-A.
 Alpha  occ. eigenvalues --  -19.26364 -19.26227 -19.25412 -14.41280 -10.30766
 Alpha  occ. eigenvalues --  -10.30291 -10.29348 -10.28290 -10.27880 -10.26615
 Alpha  occ. eigenvalues --  -10.24691 -10.24420  -1.07568  -1.05834  -1.05484
 Alpha  occ. eigenvalues --   -0.96509  -0.82990  -0.79254  -0.75593  -0.71669
 Alpha  occ. eigenvalues --   -0.66107  -0.62387  -0.60627  -0.58035  -0.55714
 Alpha  occ. eigenvalues --   -0.53452  -0.52372  -0.49969  -0.49462  -0.47230
 Alpha  occ. eigenvalues --   -0.45510  -0.44863  -0.43864  -0.41860  -0.40789
 Alpha  occ. eigenvalues --   -0.39810  -0.38141  -0.37240  -0.36598  -0.35697
 Alpha  occ. eigenvalues --   -0.35336  -0.34350  -0.33498  -0.32443  -0.29602
 Alpha  occ. eigenvalues --   -0.28311  -0.23142
 Alpha virt. eigenvalues --    0.00734   0.01335   0.01688   0.01967   0.03352
 Alpha virt. eigenvalues --    0.03985   0.04435   0.05034   0.05445   0.07205
 Alpha virt. eigenvalues --    0.07738   0.08151   0.08194   0.08973   0.09501

 Mulliken atomic charges:
              1
     1  C   -0.518140
     2  C    0.171875
     3  N   -0.141363
     4  C   -0.246030
     5  C   -0.251191
     6  C   -0.072319
     7  C    0.029158
     8  C   -0.211818
     9  H    0.178193
    10  H    0.178747
    11  H    0.157346
    12  H    0.159151
    13  H    0.170142
    14  H    0.173163
    15  H    0.172978
    16  H    0.173409
    17  H    0.168492
    18  H    0.184580
    19  O   -0.534578
    20  H    0.373897
    21  O   -0.551452
    22  H    0.388841
    23  C   -0.280519
    24  H    0.161454
    25  H    0.161306
    26  O   -0.587796
    27  H    0.392473
 Sum of Mulliken atomic charges =   0.00000

 Dipole moment (field-independent basis, Debye):
    X=              0.0606    Y=              0.9645    Z=             -2.3954  Tot=              2.5830
 Quadrupole moment (field-independent basis, Debye-Ang):
   XX=            -71.4908   YY=            -69.9998   ZZ=            -72.4397
   XY=             -5.0365   XZ=              2.4136   YZ=             -6.9224

 Normal termination of Gaussian 09 at Fri May 17 12:10:11 2024.
