 Gaussian 09, Revision C.01,
 Gaussian 09:  AM64L-G09RevC.01 23-Sep-2011

 ------------------------------------------------
 # mpw1pw91/6-31+G** nmr scrf=(pcm,solvent=water)
 ------------------------------------------------

 99/9=1/99;
 -------
 comment
 -------
 Charge =  0 Multiplicity = 1

                         Standard orientation:
 ---------------------------------------------------------------------
 Center     Atomic      Atomic             Coordinates (Angstroms)
 Number     Number       Type             X           Y           Z
 ---------------------------------------------------------------------
      1          6           0        2.646221   -0.030838    0.114858
      2          6           0        1.342934    0.375909   -0.604200
      3          7           0        0.488632   -0.868091   -0.687246
      4          6           0        1.267652   -1.965549   -0.067957
      5          6           0        2.253988   -1.294209    0.895082
      6          6           0       -0.781029   -0.583182    0.012405
      7          6           0       -0.936092    0.933691   -0.142465
      8          6           0        0.486935    1.428291    0.112346
      9          1           0        3.421776   -0.272364   -0.621218
     10          1           0        3.028910    0.776249    0.748119
     11          1           0        1.555912    0.753738   -1.611361
     12          1           0        1.816583   -2.509813   -0.847613
     13          1           0        0.594769   -2.679513    0.415975
     14          1           0        3.109142   -1.930336    1.145337
     15          1           0        1.746418   -1.027629    1.830606
     16          1           0       -0.713388   -0.806117    1.092704
     17          1           0       -1.223535    1.181357   -1.170630
     18          1           0        0.672164    1.401810    1.198062
     19          8           0        0.773852    2.727540   -0.398739
     20          1           0        0.207491    3.352061    0.085513
     21          8           0       -1.952457    1.515182    0.679420
     22          1           0       -1.728868    1.314273    1.606171
     23          6           0       -1.971434   -1.363290   -0.541224
     24          1           0       -2.117569   -1.112248   -1.603121
     25          1           0       -1.793634   -2.442281   -0.474736
     26          8           0       -3.157096   -1.092693    0.216345
     27          1           0       -3.166040   -0.127729    0.367628
 ---------------------------------------------------------------------

 SCF Done:  E(RmPW1PW91) =  -594.199652569     A.U. after   13 cycles

      1  C    Isotropic =   163.0651   Anisotropy =    24.7847

      2  C    Isotropic =   128.2594   Anisotropy =    55.1674

      3  N    Isotropic =   201.2848   Anisotropy =    65.9116

      4  C    Isotropic =   141.7781   Anisotropy =    52.6079

      5  C    Isotropic =   171.3604   Anisotropy =    20.0564

      6  C    Isotropic =   128.5749   Anisotropy =    47.0733

      7  C    Isotropic =   110.8890   Anisotropy =    27.8221

      8  C    Isotropic =   113.0665   Anisotropy =    26.1264

      9  H    Isotropic =    29.7745   Anisotropy =    11.7621

     10  H    Isotropic =    29.7343   Anisotropy =     9.3934

     11  H    Isotropic =    28.2651   Anisotropy =     7.0322

     12  H    Isotropic =    28.9578   Anisotropy =    11.9906

     13  H    Isotropic =    28.8454   Anisotropy =     8.4546

     14  H    Isotropic =    30.0511   Anisotropy =    12.6146

     15  H    Isotropic =    29.8107   Anisotropy =     8.8313

     16  H    Isotropic =    29.1100   Anisotropy =     5.2663

     17  H    Isotropic =    27.7872   Anisotropy =     1.5238

     18  H    Isotropic =    28.0789   Anisotropy =     3.5598

     19  O    Isotropic =   297.8248   Anisotropy =    43.2482

     20  H    Isotropic =    29.3092   Anisotropy =    18.7433

     21  O    Isotropic =   287.8261   Anisotropy =    74.5396

     22  H    Isotropic =    30.5594   Anisotropy =    14.8775

     23  C    Isotropic =   125.7415   Anisotropy =    59.1514

     24  H    Isotropic =    27.8033   Anisotropy =     4.1714

     25  H    Isotropic =    27.8220   Anisotropy =     4.5172

     26  O    Isotropic =   314.1225   Anisotropy =    39.4126

     27  H    Isotropic =    28.4553   Anisotropy =    19.4753

 The electronic state is 1-A.
 Alpha  occ. eigenvalues --  -19.27617 -19.26285 -19.25049 -14.41923 -10.31024
 Alpha  occ. eigenvalues --  -10.30824 -10.29502 -10.28543 -10.28183 -10.27081
 Alpha  occ. eigenvalues --  -10.24798 -10.24620  -1.08388  -1.06326  -1.05049
 Alpha  occ. eigenvalues --   -0.97115  -0.83045  -0.79918  -0.75272  -0.71729
 Alpha  occ. eigenvalues --   -0.66971  -0.63627  -0.60418  -0.58517  -0.56148
 Alpha  occ. eigenvalues --   -0.53690  -0.51999  -0.50771  -0.48667  -0.47443
 Alpha  occ. eigenvalues --   -0.45714  -0.45084  -0.43751  -0.42797  -0.40494
 Alpha  occ. eigenvalues --   -0.40294  -0.39893  -0.37731  -0.37166  -0.35901
 Alpha  occ. eigenvalues --   -0.35224  -0.35003  -0.33432  -0.32616  -0.29654
 Alpha  occ. eigenvalues --   -0.28444  -0.23915
 Alpha virt. eigenvalues --    0.00504   0.01477   0.01738   0.02272   0.03690
 Alpha virt. eigenvalues --    0.04213   0.04527   0.04566   0.05123   0.07031
 Alpha virt. eigenvalues --    0.07791   0.08133   0.08418   0.09156   0.09508

 Mulliken atomic charges:
              1
     1  C   -0.559746
     2  C    0.164050
     3  N   -0.136828
     4  C   -0.245468
     5  C   -0.216025
     6  C   -0.368085
     7  C   -0.007455
     8  C   -0.047154
     9  H    0.180041
    10  H    0.180012
    11  H    0.172774
    12  H    0.167739
    13  H    0.167626
    14  H    0.175178
    15  H    0.175266
    16  H    0.180097
    17  H    0.196883
    18  H    0.170968
    19  O   -0.542333
    20  H    0.385606
    21  O   -0.585162
    22  H    0.400097
    23  C   -0.177177
    24  H    0.159928
    25  H    0.161740
    26  O   -0.547145
    27  H    0.394572
 Sum of Mulliken atomic charges =   0.00000

 Dipole moment (field-independent basis, Debye):
    X=              2.9784    Y=              0.3439    Z=              3.1415  Tot=              4.3426
 Quadrupole moment (field-independent basis, Debye-Ang):
   XX=            -85.3343   YY=            -74.3526   ZZ=            -71.1653
   XY=             -9.0509   XZ=              1.8100   YZ=              4.6441

 Normal termination of Gaussian 09 at Fri May 17 12:48:22 2024.
