 Gaussian 09, Revision C.01,
 Gaussian 09:  AM64L-G09RevC.01 23-Sep-2011

 ------------------------------------------------
 # mpw1pw91/6-31+G** nmr scrf=(pcm,solvent=water)
 ------------------------------------------------

 99/9=1/99;
 -------
 comment
 -------
 Charge =  0 Multiplicity = 1

                         Standard orientation:
 ---------------------------------------------------------------------
 Center     Atomic      Atomic             Coordinates (Angstroms)
 Number     Number       Type             X           Y           Z
 ---------------------------------------------------------------------
      1          6           0        2.284597   -1.075851    0.228633
      2          6           0        1.290981   -0.136011   -0.472005
      3          7           0       -0.044627   -0.819588   -0.399103
      4          6           0        0.122376   -2.096179    0.320023
      5          6           0        1.599577   -2.448378    0.123801
      6          6           0       -1.032416    0.116688    0.164968
      7          6           0       -0.422825    1.498026   -0.098461
      8          6           0        1.066655    1.256423    0.137747
      9          1           0        3.280073   -1.051659   -0.225232
     10          1           0        2.388210   -0.793344    1.284072
     11          1           0        1.575529    0.000183   -1.524993
     12          1           0       -0.551617   -2.864223   -0.074692
     13          1           0       -0.102933   -1.983256    1.394394
     14          1           0        1.757153   -2.879788   -0.872375
     15          1           0        1.958929   -3.169740    0.864277
     16          1           0       -1.118998   -0.008984    1.259442
     17          1           0       -0.570669    1.783371   -1.151156
     18          1           0        1.239931    1.227313    1.223051
     19          8           0        1.831933    2.305464   -0.453470
     20          1           0        2.753567    2.187285   -0.169487
     21          8           0       -1.009530    2.472240    0.759732
     22          1           0       -0.650848    3.334854    0.492169
     23          6           0       -2.425894   -0.029365   -0.425621
     24          1           0       -3.051420    0.806252   -0.079331
     25          1           0       -2.367412    0.018382   -1.522089
     26          8           0       -2.981452   -1.280071   -0.001001
     27          1           0       -3.853020   -1.362710   -0.420927
 ---------------------------------------------------------------------

 SCF Done:  E(RmPW1PW91) =  -594.198267166     A.U. after   13 cycles

      1  C    Isotropic =   162.8639   Anisotropy =    24.5268

      2  C    Isotropic =   126.0395   Anisotropy =    53.7026

      3  N    Isotropic =   193.2009   Anisotropy =    94.2883

      4  C    Isotropic =   136.9549   Anisotropy =    56.5383

      5  C    Isotropic =   164.1364   Anisotropy =    23.4465

      6  C    Isotropic =   125.3125   Anisotropy =    41.0691

      7  C    Isotropic =   115.0764   Anisotropy =    42.3392

      8  C    Isotropic =   110.9717   Anisotropy =    15.5360

      9  H    Isotropic =    29.5706   Anisotropy =     9.7579

     10  H    Isotropic =    30.1401   Anisotropy =     8.1342

     11  H    Isotropic =    28.2565   Anisotropy =     6.9337

     12  H    Isotropic =    28.1913   Anisotropy =     8.3380

     13  H    Isotropic =    28.9943   Anisotropy =     7.5272

     14  H    Isotropic =    29.5613   Anisotropy =    10.5435

     15  H    Isotropic =    29.5105   Anisotropy =    11.4406

     16  H    Isotropic =    28.6921   Anisotropy =     4.3951

     17  H    Isotropic =    27.6336   Anisotropy =     1.4705

     18  H    Isotropic =    27.7956   Anisotropy =     3.1132

     19  O    Isotropic =   296.3468   Anisotropy =    30.5062

     20  H    Isotropic =    29.7746   Anisotropy =    18.8596

     21  O    Isotropic =   296.1412   Anisotropy =    42.1375

     22  H    Isotropic =    29.3566   Anisotropy =    19.1068

     23  C    Isotropic =   125.5867   Anisotropy =    48.2958

     24  H    Isotropic =    27.4866   Anisotropy =     5.0790

     25  H    Isotropic =    27.9551   Anisotropy =     4.9728

     26  O    Isotropic =   312.4702   Anisotropy =    90.4876

     27  H    Isotropic =    30.2905   Anisotropy =    21.6263

 The electronic state is 1-A.
 Alpha  occ. eigenvalues --  -19.26165 -19.26132 -19.25357 -14.41078 -10.30750
 Alpha  occ. eigenvalues --  -10.30260 -10.29313 -10.28155 -10.27610 -10.26586
 Alpha  occ. eigenvalues --  -10.24624 -10.24538  -1.07422  -1.05707  -1.05423
 Alpha  occ. eigenvalues --   -0.96527  -0.83236  -0.79249  -0.75404  -0.71658
 Alpha  occ. eigenvalues --   -0.65840  -0.61343  -0.60414  -0.58323  -0.55505
 Alpha  occ. eigenvalues --   -0.54034  -0.52422  -0.50550  -0.48674  -0.47443
 Alpha  occ. eigenvalues --   -0.45835  -0.44462  -0.43213  -0.41787  -0.40878
 Alpha  occ. eigenvalues --   -0.39771  -0.38601  -0.37804  -0.35764  -0.35630
 Alpha  occ. eigenvalues --   -0.34801  -0.34344  -0.33649  -0.31096  -0.29601
 Alpha  occ. eigenvalues --   -0.29020  -0.22776
 Alpha virt. eigenvalues --    0.00831   0.01307   0.01771   0.02111   0.03094
 Alpha virt. eigenvalues --    0.04327   0.04605   0.05059   0.05630   0.06845
 Alpha virt. eigenvalues --    0.07812   0.08006   0.08744   0.09216   0.09511

 Mulliken atomic charges:
              1
     1  C   -0.378316
     2  C    0.000733
     3  N   -0.109914
     4  C   -0.206728
     5  C   -0.365367
     6  C   -0.019686
     7  C   -0.048625
     8  C   -0.101048
     9  H    0.177672
    10  H    0.170007
    11  H    0.168740
    12  H    0.167111
    13  H    0.147985
    14  H    0.178309
    15  H    0.176221
    16  H    0.161057
    17  H    0.175307
    18  H    0.172400
    19  O   -0.555449
    20  H    0.389572
    21  O   -0.557364
    22  H    0.390359
    23  C   -0.261104
    24  H    0.161286
    25  H    0.160112
    26  O   -0.585858
    27  H    0.392588
 Sum of Mulliken atomic charges =   0.00000

 Dipole moment (field-independent basis, Debye):
    X=              2.0806    Y=              0.2959    Z=             -0.3532  Tot=              2.1310
 Quadrupole moment (field-independent basis, Debye-Ang):
   XX=            -59.5009   YY=            -74.0783   ZZ=            -75.9677
   XY=             -0.4506   XZ=              8.3034   YZ=             -0.4772

 Normal termination of Gaussian 09 at Fri May 17 12:38:07 2024.
