 Gaussian 09, Revision C.01,
 Gaussian 09:  AM64L-G09RevC.01 23-Sep-2011

 ------------------------------------------------
 # mpw1pw91/6-31+G** nmr scrf=(pcm,solvent=water)
 ------------------------------------------------

 99/9=1/99;
 -------
 comment
 -------
 Charge =  0 Multiplicity = 1

                         Standard orientation:
 ---------------------------------------------------------------------
 Center     Atomic      Atomic             Coordinates (Angstroms)
 Number     Number       Type             X           Y           Z
 ---------------------------------------------------------------------
      1          6           0        2.326768    0.273069   -0.455006
      2          6           0        0.847892    0.355339   -0.872236
      3          7           0        0.178215   -0.844382   -0.254929
      4          6           0        1.218618   -1.633267    0.454317
      5          6           0        2.535617   -1.227310   -0.211393
      6          6           0       -0.935776   -0.370139    0.600758
      7          6           0       -0.674277    1.124295    0.864772
      8          6           0        0.075463    1.596912   -0.393277
      9          1           0        2.993409    0.691843   -1.215244
     10          1           0        2.488120    0.826709    0.476581
     11          1           0        0.768228    0.306941   -1.964767
     12          1           0        1.012327   -2.706640    0.374830
     13          1           0        1.248271   -1.379657    1.524108
     14          1           0        2.664665   -1.756021   -1.163675
     15          1           0        3.403449   -1.447858    0.417711
     16          1           0       -0.932259   -0.930486    1.543329
     17          1           0       -1.601259    1.696028    1.013683
     18          1           0        0.747208    2.428347   -0.146614
     19          8           0       -0.828473    1.988286   -1.433283
     20          1           0       -1.346348    2.740537   -1.098893
     21          8           0        0.212930    1.322039    1.974285
     22          1           0       -0.193411    0.895987    2.747450
     23          6           0       -2.280160   -0.636357   -0.084841
     24          1           0       -3.106774   -0.387356    0.588839
     25          1           0       -2.376484   -0.017439   -0.986970
     26          8           0       -2.404280   -2.022784   -0.407863
     27          1           0       -1.542934   -2.245844   -0.809538
 ---------------------------------------------------------------------

 SCF Done:  E(RmPW1PW91) =  -594.198582603     A.U. after   13 cycles

      1  C    Isotropic =   163.6119   Anisotropy =    24.6733

      2  C    Isotropic =   121.2819   Anisotropy =    47.9324

      3  N    Isotropic =   194.5047   Anisotropy =    84.8899

      4  C    Isotropic =   135.7305   Anisotropy =    62.6967

      5  C    Isotropic =   166.8702   Anisotropy =    20.0410

      6  C    Isotropic =   115.7753   Anisotropy =    25.8010

      7  C    Isotropic =   111.1980   Anisotropy =    24.4872

      8  C    Isotropic =   112.9072   Anisotropy =    25.4537

      9  H    Isotropic =    29.5840   Anisotropy =    10.4801

     10  H    Isotropic =    29.6954   Anisotropy =     7.3098

     11  H    Isotropic =    27.9804   Anisotropy =     7.5638

     12  H    Isotropic =    28.2656   Anisotropy =     9.3884

     13  H    Isotropic =    28.6130   Anisotropy =     7.9609

     14  H    Isotropic =    29.6879   Anisotropy =    10.9444

     15  H    Isotropic =    29.6430   Anisotropy =    11.7350

     16  H    Isotropic =    28.6448   Anisotropy =     6.3183

     17  H    Isotropic =    27.7082   Anisotropy =     5.0828

     18  H    Isotropic =    27.4527   Anisotropy =     4.5095

     19  O    Isotropic =   279.1164   Anisotropy =    90.5715

     20  H    Isotropic =    30.3684   Anisotropy =    19.3801

     21  O    Isotropic =   277.4411   Anisotropy =    83.3079

     22  H    Isotropic =    30.4745   Anisotropy =    17.9376

     23  C    Isotropic =   132.6286   Anisotropy =    50.9733

     24  H    Isotropic =    28.2821   Anisotropy =     6.5761

     25  H    Isotropic =    27.9813   Anisotropy =     7.0060

     26  O    Isotropic =   313.4183   Anisotropy =    35.9042

     27  H    Isotropic =    29.0422   Anisotropy =    15.6300

 The electronic state is 1-A.
 Alpha  occ. eigenvalues --  -19.26041 -19.25982 -19.24816 -14.41577 -10.30803
 Alpha  occ. eigenvalues --  -10.30619 -10.28946 -10.28109 -10.27794 -10.26847
 Alpha  occ. eigenvalues --  -10.24564 -10.24496  -1.07195  -1.05759  -1.05155
 Alpha  occ. eigenvalues --   -0.96057  -0.82663  -0.79288  -0.75189  -0.71562
 Alpha  occ. eigenvalues --   -0.66341  -0.61623  -0.60895  -0.58191  -0.54311
 Alpha  occ. eigenvalues --   -0.52879  -0.52407  -0.51545  -0.49017  -0.46829
 Alpha  occ. eigenvalues --   -0.45755  -0.44552  -0.43620  -0.41621  -0.40363
 Alpha  occ. eigenvalues --   -0.39459  -0.38675  -0.37114  -0.36672  -0.35578
 Alpha  occ. eigenvalues --   -0.34857  -0.34464  -0.34017  -0.30417  -0.29624
 Alpha  occ. eigenvalues --   -0.29193  -0.23471
 Alpha virt. eigenvalues --    0.00857   0.01604   0.01651   0.02484   0.03573
 Alpha virt. eigenvalues --    0.03800   0.04523   0.04808   0.05698   0.07207
 Alpha virt. eigenvalues --    0.07492   0.08614   0.08698   0.08928   0.09389

 Mulliken atomic charges:
              1
     1  C   -0.446122
     2  C   -0.016350
     3  N   -0.269564
     4  C   -0.101782
     5  C   -0.440599
     6  C    0.043671
     7  C   -0.103476
     8  C   -0.004930
     9  H    0.175271
    10  H    0.182412
    11  H    0.170499
    12  H    0.164090
    13  H    0.161304
    14  H    0.177153
    15  H    0.177104
    16  H    0.165833
    17  H    0.164152
    18  H    0.175573
    19  O   -0.544447
    20  H    0.379676
    21  O   -0.542562
    22  H    0.380618
    23  C   -0.218454
    24  H    0.163123
    25  H    0.165889
    26  O   -0.539554
    27  H    0.381473
 Sum of Mulliken atomic charges =   0.00000

 Dipole moment (field-independent basis, Debye):
    X=              1.5630    Y=              2.2633    Z=              2.7802  Tot=              3.9108
 Quadrupole moment (field-independent basis, Debye-Ang):
   XX=            -75.8247   YY=            -74.2502   ZZ=            -72.6033
   XY=            -13.0049   XZ=             -6.4139   YZ=             -1.0561

 Normal termination of Gaussian 09 at Fri May 17 12:45:40 2024.
