 Gaussian 09, Revision C.01,
 Gaussian 09:  AM64L-G09RevC.01 23-Sep-2011

 ------------------------------------------------
 # mpw1pw91/6-31+G** nmr scrf=(pcm,solvent=water)
 ------------------------------------------------

 99/9=1/99;
 -------
 comment
 -------
 Charge =  0 Multiplicity = 1

                         Standard orientation:
 ---------------------------------------------------------------------
 Center     Atomic      Atomic             Coordinates (Angstroms)
 Number     Number       Type             X           Y           Z
 ---------------------------------------------------------------------
      1          6           0       -1.954616    1.624259   -0.158638
      2          6           0       -1.140304    0.438827   -0.704836
      3          7           0        0.309027    0.802853   -0.522178
      4          6           0        0.351614    2.087535    0.225677
      5          6           0       -1.021055    2.242344    0.891622
      6          6           0        0.989231   -0.321354    0.167293
      7          6           0        0.056062   -1.525441   -0.033384
      8          6           0       -1.329225   -0.883105    0.042016
      9          1           0       -2.152070    2.347390   -0.958778
     10          1           0       -2.919862    1.300540    0.244362
     11          1           0       -1.360197    0.260812   -1.765110
     12          1           0        0.523401    2.918675   -0.471184
     13          1           0        1.184285    2.082664    0.933925
     14          1           0       -1.265431    3.282586    1.129535
     15          1           0       -1.057615    1.663708    1.822961
     16          1           0        1.065339   -0.129487    1.251126
     17          1           0        0.192557   -1.955832   -1.032802
     18          1           0       -1.557376   -0.691379    1.103447
     19          8           0       -2.374610   -1.649391   -0.550058
     20          1           0       -2.424977   -2.482898   -0.051754
     21          8           0        0.266729   -2.602450    0.874944
     22          1           0        0.131181   -2.250540    1.772589
     23          6           0        2.396242   -0.565534   -0.366956
     24          1           0        2.848656   -1.405938    0.170041
     25          1           0        2.347597   -0.828415   -1.433592
     26          8           0        3.268732    0.552274   -0.166787
     27          1           0        2.906825    1.279493   -0.701082
 ---------------------------------------------------------------------

 SCF Done:  E(RmPW1PW91) =  -594.199126249     A.U. after   13 cycles

      1  C    Isotropic =   164.5231   Anisotropy =    22.1692

      2  C    Isotropic =   128.3055   Anisotropy =    54.9857

      3  N    Isotropic =   199.5238   Anisotropy =    74.0885

      4  C    Isotropic =   138.5118   Anisotropy =    59.9978

      5  C    Isotropic =   171.2643   Anisotropy =    19.1930

      6  C    Isotropic =   123.0782   Anisotropy =    39.5697

      7  C    Isotropic =   115.3407   Anisotropy =    36.9355

      8  C    Isotropic =   113.3901   Anisotropy =    27.9000

      9  H    Isotropic =    29.7964   Anisotropy =    11.8966

     10  H    Isotropic =    29.7293   Anisotropy =     9.6576

     11  H    Isotropic =    28.2276   Anisotropy =     7.0004

     12  H    Isotropic =    28.6260   Anisotropy =    11.3139

     13  H    Isotropic =    28.8038   Anisotropy =     7.0633

     14  H    Isotropic =    30.0384   Anisotropy =    12.6222

     15  H    Isotropic =    29.8504   Anisotropy =     8.9397

     16  H    Isotropic =    29.1073   Anisotropy =     5.8341

     17  H    Isotropic =    28.1716   Anisotropy =     1.6078

     18  H    Isotropic =    28.1624   Anisotropy =     3.8693

     19  O    Isotropic =   298.4610   Anisotropy =    43.3482

     20  H    Isotropic =    29.3461   Anisotropy =    18.7043

     21  O    Isotropic =   293.6117   Anisotropy =    98.6010

     22  H    Isotropic =    30.9612   Anisotropy =    15.4037

     23  C    Isotropic =   125.8531   Anisotropy =    48.1932

     24  H    Isotropic =    27.7770   Anisotropy =     5.5271

     25  H    Isotropic =    28.0478   Anisotropy =     6.0367

     26  O    Isotropic =   308.6048   Anisotropy =    24.4362

     27  H    Isotropic =    29.9677   Anisotropy =    14.0411

 The electronic state is 1-A.
 Alpha  occ. eigenvalues --  -19.26602 -19.26174 -19.25591 -14.41758 -10.30773
 Alpha  occ. eigenvalues --  -10.30544 -10.29453 -10.28308 -10.28074 -10.27030
 Alpha  occ. eigenvalues --  -10.24796 -10.24620  -1.07713  -1.05902  -1.05660
 Alpha  occ. eigenvalues --   -0.96748  -0.82976  -0.79656  -0.75550  -0.71797
 Alpha  occ. eigenvalues --   -0.66382  -0.63395  -0.60539  -0.57993  -0.56016
 Alpha  occ. eigenvalues --   -0.53667  -0.52224  -0.50476  -0.48820  -0.46989
 Alpha  occ. eigenvalues --   -0.45834  -0.45034  -0.43702  -0.43022  -0.40400
 Alpha  occ. eigenvalues --   -0.39856  -0.39018  -0.37415  -0.36940  -0.35938
 Alpha  occ. eigenvalues --   -0.35152  -0.34916  -0.33263  -0.32331  -0.30371
 Alpha  occ. eigenvalues --   -0.28223  -0.23608
 Alpha virt. eigenvalues --    0.00705   0.01039   0.01889   0.02312   0.03385
 Alpha virt. eigenvalues --    0.04059   0.04380   0.04755   0.05425   0.07041
 Alpha virt. eigenvalues --    0.07662   0.08048   0.08264   0.09091   0.09354

 Mulliken atomic charges:
              1
     1  C   -0.529518
     2  C    0.097917
     3  N   -0.220177
     4  C   -0.266691
     5  C   -0.238395
     6  C    0.059497
     7  C   -0.094812
     8  C   -0.071127
     9  H    0.179594
    10  H    0.180790
    11  H    0.170945
    12  H    0.168275
    13  H    0.171560
    14  H    0.175229
    15  H    0.174771
    16  H    0.166948
    17  H    0.184761
    18  H    0.167458
    19  O   -0.545239
    20  H    0.385569
    21  O   -0.524159
    22  H    0.375094
    23  C   -0.334785
    24  H    0.169081
    25  H    0.161126
    26  O   -0.541670
    27  H    0.377956
 Sum of Mulliken atomic charges =   0.00000

 Dipole moment (field-independent basis, Debye):
    X=             -2.2577    Y=              1.5432    Z=              2.4077  Tot=              3.6436
 Quadrupole moment (field-independent basis, Debye-Ang):
   XX=            -87.8616   YY=            -71.9725   ZZ=            -69.8795
   XY=             -0.2758   XZ=             -5.9789   YZ=             -3.1093

 Normal termination of Gaussian 09 at Fri May 17 12:15:29 2024.
