 Gaussian 09, Revision C.01,
 Gaussian 09:  AM64L-G09RevC.01 23-Sep-2011

 ------------------------------------------------
 # mpw1pw91/6-31+G** nmr scrf=(pcm,solvent=water)
 ------------------------------------------------

 99/9=1/99;
 -------
 comment
 -------
 Charge =  0 Multiplicity = 1

                         Standard orientation:
 ---------------------------------------------------------------------
 Center     Atomic      Atomic             Coordinates (Angstroms)
 Number     Number       Type             X           Y           Z
 ---------------------------------------------------------------------
      1          6           0        2.121358    0.676408   -0.737785
      2          6           0        0.638675    0.313683   -0.925075
      3          7           0        0.411238   -0.914523   -0.084558
      4          6           0        1.715510   -1.332635    0.488865
      5          6           0        2.765976   -0.677274   -0.412641
      6          6           0       -0.657335   -0.626104    0.901647
      7          6           0       -0.783217    0.907478    0.952548
      8          6           0       -0.397180    1.367256   -0.468346
      9          1           0        2.543731    1.162609   -1.622818
     10          1           0        2.238355    1.358808    0.111893
     11          1           0        0.444772    0.080936   -1.979600
     12          1           0        1.801769   -2.425386    0.511235
     13          1           0        1.829073   -0.972550    1.521590
     14          1           0        2.903672   -1.264036   -1.329106
     15          1           0        3.738443   -0.589943    0.081810
     16          1           0       -0.369299   -0.990247    1.894245
     17          1           0       -1.793858    1.247539    1.213603
     18          1           0        0.031839    2.374008   -0.449565
     19          8           0       -1.535435    1.444232   -1.328262
     20          1           0       -1.957147    0.554676   -1.308750
     21          8           0        0.165808    1.364788    1.927614
     22          1           0        0.195685    2.334703    1.868385
     23          6           0       -1.948620   -1.358237    0.513148
     24          1           0       -1.840895   -2.426789    0.738050
     25          1           0       -2.804973   -0.972949    1.073563
     26          8           0       -2.266899   -1.203640   -0.881162
     27          1           0       -1.478617   -1.536210   -1.352318
 ---------------------------------------------------------------------

 SCF Done:  E(RmPW1PW91) =  -594.201446286     A.U. after   13 cycles

      1  C    Isotropic =   162.6029   Anisotropy =    24.6747

      2  C    Isotropic =   117.0188   Anisotropy =    41.6733

      3  N    Isotropic =   198.5705   Anisotropy =    76.0657

      4  C    Isotropic =   137.4485   Anisotropy =    61.9604

      5  C    Isotropic =   166.5289   Anisotropy =    21.2188

      6  C    Isotropic =   120.9593   Anisotropy =    36.3263

      7  C    Isotropic =   107.2406   Anisotropy =    16.4894

      8  C    Isotropic =   112.5680   Anisotropy =    21.7415

      9  H    Isotropic =    29.6124   Anisotropy =    10.2729

     10  H    Isotropic =    29.8241   Anisotropy =     7.1888

     11  H    Isotropic =    28.0744   Anisotropy =     6.8274

     12  H    Isotropic =    28.2339   Anisotropy =     9.9655

     13  H    Isotropic =    28.5794   Anisotropy =     8.1790

     14  H    Isotropic =    29.7216   Anisotropy =    10.9264

     15  H    Isotropic =    29.6549   Anisotropy =    11.7074

     16  H    Isotropic =    28.4604   Anisotropy =     5.5804

     17  H    Isotropic =    27.3467   Anisotropy =     5.3927

     18  H    Isotropic =    27.9395   Anisotropy =     4.7689

     19  O    Isotropic =   275.2304   Anisotropy =    34.0556

     20  H    Isotropic =    26.4480   Anisotropy =    22.9092

     21  O    Isotropic =   276.1684   Anisotropy =    82.6981

     22  H    Isotropic =    30.3734   Anisotropy =    18.3303

     23  C    Isotropic =   128.4701   Anisotropy =    39.3878

     24  H    Isotropic =    27.7721   Anisotropy =     8.8749

     25  H    Isotropic =    27.9901   Anisotropy =     7.5036

     26  O    Isotropic =   304.7952   Anisotropy =    27.9609

     27  H    Isotropic =    29.0019   Anisotropy =    13.6912

 The electronic state is 1-A.
 Alpha  occ. eigenvalues --  -19.26955 -19.25925 -19.24394 -14.41542 -10.30437
 Alpha  occ. eigenvalues --  -10.30184 -10.30006 -10.28347 -10.27650 -10.26865
 Alpha  occ. eigenvalues --  -10.24557 -10.24473  -1.07486  -1.06355  -1.04572
 Alpha  occ. eigenvalues --   -0.96026  -0.82781  -0.78654  -0.75594  -0.71476
 Alpha  occ. eigenvalues --   -0.67293  -0.61341  -0.60879  -0.58485  -0.54817
 Alpha  occ. eigenvalues --   -0.54353  -0.51568  -0.50135  -0.48791  -0.46436
 Alpha  occ. eigenvalues --   -0.46083  -0.45218  -0.43280  -0.42404  -0.40516
 Alpha  occ. eigenvalues --   -0.39666  -0.39215  -0.37386  -0.37050  -0.35723
 Alpha  occ. eigenvalues --   -0.35167  -0.34549  -0.33167  -0.31115  -0.31009
 Alpha  occ. eigenvalues --   -0.27743  -0.23467
 Alpha virt. eigenvalues --    0.00870   0.01462   0.02363   0.02520   0.03458
 Alpha virt. eigenvalues --    0.04075   0.04330   0.04777   0.05351   0.07018
 Alpha virt. eigenvalues --    0.07447   0.08716   0.08801   0.09091   0.09375

 Mulliken atomic charges:
              1
     1  C   -0.469394
     2  C    0.066278
     3  N   -0.265211
     4  C   -0.208190
     5  C   -0.408664
     6  C    0.138600
     7  C   -0.213000
     8  C   -0.022879
     9  H    0.175045
    10  H    0.180652
    11  H    0.172268
    12  H    0.160222
    13  H    0.160904
    14  H    0.176801
    15  H    0.177446
    16  H    0.174644
    17  H    0.171466
    18  H    0.169813
    19  O   -0.575972
    20  H    0.422415
    21  O   -0.541983
    22  H    0.378341
    23  C   -0.175041
    24  H    0.168769
    25  H    0.172808
    26  O   -0.597958
    27  H    0.411820
 Sum of Mulliken atomic charges =   0.00000

 Dipole moment (field-independent basis, Debye):
    X=              2.5948    Y=             -0.6595    Z=              1.8352  Tot=              3.2459
 Quadrupole moment (field-independent basis, Debye-Ang):
   XX=            -76.2277   YY=            -69.1004   ZZ=            -77.1575
   XY=              3.0588   XZ=             -7.9319   YZ=              3.3512

 Normal termination of Gaussian 09 at Fri May 17 12:44:00 2024.
