 Gaussian 09, Revision C.01,
 Gaussian 09:  AM64L-G09RevC.01 23-Sep-2011

 ------------------------------------------------
 # mpw1pw91/6-31+G** nmr scrf=(pcm,solvent=water)
 ------------------------------------------------

 99/9=1/99;
 -------
 comment
 -------
 Charge =  0 Multiplicity = 1

                         Standard orientation:
 ---------------------------------------------------------------------
 Center     Atomic      Atomic             Coordinates (Angstroms)
 Number     Number       Type             X           Y           Z
 ---------------------------------------------------------------------
      1          6           0        2.302227   -1.043587    0.239627
      2          6           0        1.300747   -0.115567   -0.465308
      3          7           0       -0.027966   -0.817850   -0.405266
      4          6           0        0.153954   -2.094172    0.311117
      5          6           0        1.637020   -2.424722    0.122513
      6          6           0       -1.032019    0.102470    0.154232
      7          6           0       -0.438990    1.494245   -0.122347
      8          6           0        1.054134    1.268557    0.136959
      9          1           0        3.299741   -1.002469   -0.208241
     10          1           0        2.395048   -0.764194    1.296503
     11          1           0        1.592385    0.023979   -1.515933
     12          1           0       -0.506941   -2.870361   -0.089589
     13          1           0       -0.078792   -1.987498    1.384562
     14          1           0        1.806917   -2.847956   -0.875166
     15          1           0        2.001785   -3.145159    0.861150
     16          1           0       -1.113465   -0.018884    1.251234
     17          1           0       -0.580295    1.766510   -1.174993
     18          1           0        1.207470    1.241526    1.227916
     19          8           0        1.909110    2.243986   -0.453245
     20          1           0        1.649764    3.103041   -0.078331
     21          8           0       -1.018503    2.557224    0.625244
     22          1           0       -0.914685    2.335527    1.567460
     23          6           0       -2.424076   -0.068940   -0.428746
     24          1           0       -3.055271    0.767540   -0.094356
     25          1           0       -2.369575   -0.039712   -1.526048
     26          8           0       -2.968080   -1.317237    0.018776
     27          1           0       -3.836523   -1.418425   -0.403775
 ---------------------------------------------------------------------

 SCF Done:  E(RmPW1PW91) =  -594.198197085     A.U. after   13 cycles

      1  C    Isotropic =   162.2940   Anisotropy =    25.3099

      2  C    Isotropic =   128.7111   Anisotropy =    52.5104

      3  N    Isotropic =   193.7745   Anisotropy =    93.5768

      4  C    Isotropic =   137.1772   Anisotropy =    56.1778

      5  C    Isotropic =   164.4144   Anisotropy =    23.0992

      6  C    Isotropic =   123.5546   Anisotropy =    40.7274

      7  C    Isotropic =   112.6654   Anisotropy =    38.4479

      8  C    Isotropic =   111.1922   Anisotropy =    17.2268

      9  H    Isotropic =    29.5113   Anisotropy =     9.7275

     10  H    Isotropic =    30.0620   Anisotropy =     8.2805

     11  H    Isotropic =    28.1685   Anisotropy =     7.0126

     12  H    Isotropic =    28.1878   Anisotropy =     8.3316

     13  H    Isotropic =    29.0323   Anisotropy =     7.5634

     14  H    Isotropic =    29.5505   Anisotropy =    10.5883

     15  H    Isotropic =    29.5180   Anisotropy =    11.4464

     16  H    Isotropic =    28.9842   Anisotropy =     4.6013

     17  H    Isotropic =    27.9448   Anisotropy =     1.1561

     18  H    Isotropic =    28.0033   Anisotropy =     2.8048

     19  O    Isotropic =   298.3031   Anisotropy =    39.7039

     20  H    Isotropic =    29.3537   Anisotropy =    18.1807

     21  O    Isotropic =   290.8306   Anisotropy =    89.1420

     22  H    Isotropic =    30.7966   Anisotropy =    15.4287

     23  C    Isotropic =   125.9220   Anisotropy =    48.6156

     24  H    Isotropic =    27.5040   Anisotropy =     5.0547

     25  H    Isotropic =    27.9351   Anisotropy =     4.9719

     26  O    Isotropic =   312.6421   Anisotropy =    89.8411

     27  H    Isotropic =    30.2899   Anisotropy =    21.6006

 The electronic state is 1-A.
 Alpha  occ. eigenvalues --  -19.26598 -19.26094 -19.25406 -14.41207 -10.30757
 Alpha  occ. eigenvalues --  -10.30491 -10.29421 -10.28288 -10.27878 -10.26642
 Alpha  occ. eigenvalues --  -10.24619 -10.24545  -1.07711  -1.05846  -1.05480
 Alpha  occ. eigenvalues --   -0.96641  -0.83190  -0.79460  -0.75415  -0.71512
 Alpha  occ. eigenvalues --   -0.66205  -0.62753  -0.60653  -0.57391  -0.55669
 Alpha  occ. eigenvalues --   -0.53856  -0.52474  -0.50092  -0.49484  -0.46964
 Alpha  occ. eigenvalues --   -0.45432  -0.45363  -0.43465  -0.41828  -0.40481
 Alpha  occ. eigenvalues --   -0.39649  -0.38840  -0.37930  -0.36879  -0.35609
 Alpha  occ. eigenvalues --   -0.34966  -0.34616  -0.33074  -0.32239  -0.29645
 Alpha  occ. eigenvalues --   -0.28373  -0.22974
 Alpha virt. eigenvalues --    0.00893   0.01267   0.01889   0.01980   0.03393
 Alpha virt. eigenvalues --    0.04179   0.04497   0.04884   0.05599   0.07288
 Alpha virt. eigenvalues --    0.07855   0.08004   0.08512   0.09181   0.09395

 Mulliken atomic charges:
              1
     1  C   -0.409276
     2  C   -0.020065
     3  N   -0.110814
     4  C   -0.222614
     5  C   -0.357030
     6  C   -0.001794
     7  C   -0.191616
     8  C    0.030827
     9  H    0.177694
    10  H    0.169567
    11  H    0.169237
    12  H    0.167763
    13  H    0.148519
    14  H    0.178255
    15  H    0.176566
    16  H    0.153276
    17  H    0.188005
    18  H    0.163343
    19  O   -0.545951
    20  H    0.385347
    21  O   -0.524445
    22  H    0.375115
    23  C   -0.230790
    24  H    0.160980
    25  H    0.162775
    26  O   -0.585333
    27  H    0.392457
 Sum of Mulliken atomic charges =   0.00000

 Dipole moment (field-independent basis, Debye):
    X=             -0.7865    Y=             -0.0392    Z=              2.0801  Tot=              2.2241
 Quadrupole moment (field-independent basis, Debye-Ang):
   XX=            -69.7857   YY=            -76.1615   ZZ=            -70.2250
   XY=             -2.1562   XZ=              6.4534   YZ=              4.6516

 Normal termination of Gaussian 09 at Fri May 17 12:21:26 2024.
