 Gaussian 09, Revision C.01,
 Gaussian 09:  AM64L-G09RevC.01 23-Sep-2011

 ------------------------------------------------
 # mpw1pw91/6-31+G** nmr scrf=(pcm,solvent=water)
 ------------------------------------------------

 99/9=1/99;
 -------
 comment
 -------
 Charge =  0 Multiplicity = 1

                         Standard orientation:
 ---------------------------------------------------------------------
 Center     Atomic      Atomic             Coordinates (Angstroms)
 Number     Number       Type             X           Y           Z
 ---------------------------------------------------------------------
      1          6           0        2.581793    0.218904    0.390073
      2          6           0        1.305114    0.497633   -0.416904
      3          7           0        0.565054   -0.812741   -0.486943
      4          6           0        1.391748   -1.846811    0.171382
      5          6           0        2.815793   -1.280676    0.149320
      6          6           0       -0.765085   -0.607618    0.106013
      7          6           0       -1.047525    0.876168   -0.156668
      8          6           0        0.305622    1.516745    0.148187
      9          1           0        3.422156    0.846139    0.076966
     10          1           0        2.401756    0.402452    1.456755
     11          1           0        1.571341    0.820533   -1.432558
     12          1           0        1.314827   -2.808319   -0.348793
     13          1           0        1.064774   -2.008669    1.211765
     14          1           0        3.275621   -1.442157   -0.833399
     15          1           0        3.458764   -1.746553    0.902473
     16          1           0       -0.745677   -0.754501    1.201578
     17          1           0       -1.274929    1.023270   -1.224792
     18          1           0        0.407827    1.591811    1.240550
     19          8           0        0.514549    2.795954   -0.449869
     20          1           0       -0.110628    3.409783   -0.029278
     21          8           0       -2.087612    1.418519    0.651802
     22          1           0       -2.825826    0.783288    0.567046
     23          6           0       -1.833890   -1.531935   -0.463462
     24          1           0       -1.925351   -1.379887   -1.546455
     25          1           0       -1.575038   -2.585232   -0.284892
     26          8           0       -3.069988   -1.203170    0.197342
     27          1           0       -3.792014   -1.607650   -0.310202
 ---------------------------------------------------------------------

 SCF Done:  E(RmPW1PW91) =  -594.200670269     A.U. after   13 cycles

      1  C    Isotropic =   162.2384   Anisotropy =    25.6531

      2  C    Isotropic =   126.6128   Anisotropy =    54.6922

      3  N    Isotropic =   201.9456   Anisotropy =    78.4755

      4  C    Isotropic =   138.9506   Anisotropy =    58.4506

      5  C    Isotropic =   164.2321   Anisotropy =    23.2803

      6  C    Isotropic =   125.9392   Anisotropy =    54.6166

      7  C    Isotropic =   108.8046   Anisotropy =    26.4868

      8  C    Isotropic =   112.5492   Anisotropy =    21.8349

      9  H    Isotropic =    29.4866   Anisotropy =     9.6483

     10  H    Isotropic =    29.9745   Anisotropy =     7.9894

     11  H    Isotropic =    28.1709   Anisotropy =     6.8518

     12  H    Isotropic =    28.4731   Anisotropy =     9.4562

     13  H    Isotropic =    29.1186   Anisotropy =     8.0298

     14  H    Isotropic =    29.5885   Anisotropy =    10.7359

     15  H    Isotropic =    29.4810   Anisotropy =    11.5438

     16  H    Isotropic =    28.8955   Anisotropy =     4.0996

     17  H    Isotropic =    27.3999   Anisotropy =     2.0041

     18  H    Isotropic =    27.6519   Anisotropy =     2.6082

     19  O    Isotropic =   296.5703   Anisotropy =    40.2597

     20  H    Isotropic =    29.4655   Anisotropy =    18.6088

     21  O    Isotropic =   289.3953   Anisotropy =    35.4670

     22  H    Isotropic =    27.6871   Anisotropy =    20.3061

     23  C    Isotropic =   126.2733   Anisotropy =    58.3756

     24  H    Isotropic =    27.8556   Anisotropy =     3.8959

     25  H    Isotropic =    27.4443   Anisotropy =     5.2119

     26  O    Isotropic =   317.9226   Anisotropy =    82.2585

     27  H    Isotropic =    29.9996   Anisotropy =    21.4997

 The electronic state is 1-A.
 Alpha  occ. eigenvalues --  -19.26749 -19.25957 -19.25137 -14.41581 -10.30377
 Alpha  occ. eigenvalues --  -10.30106 -10.30042 -10.28215 -10.27929 -10.26959
 Alpha  occ. eigenvalues --  -10.24720 -10.24654  -1.07299  -1.06441  -1.04962
 Alpha  occ. eigenvalues --   -0.96875  -0.83158  -0.79623  -0.75369  -0.71647
 Alpha  occ. eigenvalues --   -0.66401  -0.61367  -0.60550  -0.58314  -0.55910
 Alpha  occ. eigenvalues --   -0.53743  -0.52721  -0.49956  -0.49461  -0.47325
 Alpha  occ. eigenvalues --   -0.45924  -0.44686  -0.43083  -0.42521  -0.41184
 Alpha  occ. eigenvalues --   -0.40502  -0.38854  -0.37453  -0.35951  -0.35619
 Alpha  occ. eigenvalues --   -0.35293  -0.34615  -0.33920  -0.31188  -0.29368
 Alpha  occ. eigenvalues --   -0.28896  -0.23409
 Alpha virt. eigenvalues --    0.00645   0.01472   0.01875   0.02205   0.03709
 Alpha virt. eigenvalues --    0.04257   0.04576   0.05038   0.05434   0.06679
 Alpha virt. eigenvalues --    0.07663   0.08132   0.08990   0.09430   0.09644

 Mulliken atomic charges:
              1
     1  C   -0.380670
     2  C   -0.069354
     3  N   -0.113460
     4  C   -0.180613
     5  C   -0.398245
     6  C   -0.238247
     7  C   -0.115396
     8  C    0.109830
     9  H    0.178662
    10  H    0.170003
    11  H    0.170348
    12  H    0.167257
    13  H    0.152521
    14  H    0.179483
    15  H    0.178721
    16  H    0.169056
    17  H    0.172434
    18  H    0.168968
    19  O   -0.559907
    20  H    0.386873
    21  O   -0.561006
    22  H    0.403347
    23  C   -0.129463
    24  H    0.170975
    25  H    0.165578
    26  O   -0.598779
    27  H    0.401084
 Sum of Mulliken atomic charges =   0.00000

 Dipole moment (field-independent basis, Debye):
    X=             -0.6166    Y=             -3.5444    Z=             -0.0928  Tot=              3.5989
 Quadrupole moment (field-independent basis, Debye-Ang):
   XX=            -64.2755   YY=            -72.5640   ZZ=            -75.8255
   XY=              3.3047   XZ=              8.8692   YZ=              3.0379

 Normal termination of Gaussian 09 at Fri May 17 12:20:19 2024.
