 Gaussian 09, Revision C.01,
 Gaussian 09:  AM64L-G09RevC.01 23-Sep-2011

 ------------------------------------------------
 # mpw1pw91/6-31+G** nmr scrf=(pcm,solvent=water)
 ------------------------------------------------

 99/9=1/99;
 -------
 comment
 -------
 Charge =  0 Multiplicity = 1

                         Standard orientation:
 ---------------------------------------------------------------------
 Center     Atomic      Atomic             Coordinates (Angstroms)
 Number     Number       Type             X           Y           Z
 ---------------------------------------------------------------------
      1          6           0       -2.460512    0.589549   -0.145401
      2          6           0       -1.058095    0.591988    0.481771
      3          7           0       -0.492265   -0.777076    0.226010
      4          6           0       -1.528965   -1.593622   -0.444324
      5          6           0       -2.849246   -0.895940   -0.099389
      6          6           0        0.772023   -0.624282   -0.518187
      7          6           0        1.270122    0.764606   -0.089527
      8          6           0       -0.019572    1.585721   -0.071721
      9          1           0       -3.160905    1.240163    0.387013
     10          1           0       -2.407719    0.929092   -1.187636
     11          1           0       -1.139339    0.757506    1.565937
     12          1           0       -1.500993   -2.634154   -0.102347
     13          1           0       -1.376669   -1.599297   -1.536039
     14          1           0       -3.174104   -1.175287    0.910416
     15          1           0       -3.651191   -1.157539   -0.796516
     16          1           0        0.602875   -0.598455   -1.609584
     17          1           0        1.676918    0.713446    0.931038
     18          1           0       -0.265431    1.863816   -1.103042
     19          8           0        0.059470    2.817095    0.640914
     20          1           0        0.276999    2.600050    1.564559
     21          8           0        2.226157    1.338903   -0.975017
     22          1           0        3.066620    0.871247   -0.836883
     23          6           0        1.740065   -1.769630   -0.227484
     24          1           0        1.344184   -2.703234   -0.655613
     25          1           0        2.706395   -1.569903   -0.704632
     26          8           0        1.983383   -1.923147    1.171131
     27          1           0        1.101209   -1.851071    1.580612
 ---------------------------------------------------------------------

 SCF Done:  E(RmPW1PW91) =  -594.201277657     A.U. after   13 cycles

      1  C    Isotropic =   162.1172   Anisotropy =    24.9139

      2  C    Isotropic =   125.5320   Anisotropy =    52.1001

      3  N    Isotropic =   205.8272   Anisotropy =    68.7205

      4  C    Isotropic =   139.8535   Anisotropy =    57.0845

      5  C    Isotropic =   164.7975   Anisotropy =    22.1654

      6  C    Isotropic =   121.6363   Anisotropy =    44.0709

      7  C    Isotropic =   116.5137   Anisotropy =    42.0529

      8  C    Isotropic =   112.7749   Anisotropy =    24.7961

      9  H    Isotropic =    29.4211   Anisotropy =     9.6737

     10  H    Isotropic =    29.9684   Anisotropy =     8.1406

     11  H    Isotropic =    28.4533   Anisotropy =     6.8483

     12  H    Isotropic =    28.4015   Anisotropy =     9.4517

     13  H    Isotropic =    29.1886   Anisotropy =     8.4803

     14  H    Isotropic =    29.5872   Anisotropy =    10.6674

     15  H    Isotropic =    29.4841   Anisotropy =    11.7235

     16  H    Isotropic =    29.0716   Anisotropy =     3.5997

     17  H    Isotropic =    27.4092   Anisotropy =     2.4190

     18  H    Isotropic =    27.8275   Anisotropy =     2.0520

     19  O    Isotropic =   287.9261   Anisotropy =    89.4367

     20  H    Isotropic =    30.7701   Anisotropy =    15.6259

     21  O    Isotropic =   300.4735   Anisotropy =    37.8700

     22  H    Isotropic =    29.6780   Anisotropy =    19.4826

     23  C    Isotropic =   136.3534   Anisotropy =    58.9714

     24  H    Isotropic =    27.8675   Anisotropy =     7.6472

     25  H    Isotropic =    28.1042   Anisotropy =     6.4941

     26  O    Isotropic =   330.8015   Anisotropy =    48.1261

     27  H    Isotropic =    29.2120   Anisotropy =    16.1406

 The electronic state is 1-A.
 Alpha  occ. eigenvalues --  -19.26289 -19.26109 -19.25160 -14.41951 -10.30618
 Alpha  occ. eigenvalues --  -10.30594 -10.29623 -10.28280 -10.28160 -10.27148
 Alpha  occ. eigenvalues --  -10.24833 -10.24801  -1.07472  -1.05847  -1.05469
 Alpha  occ. eigenvalues --   -0.96943  -0.83182  -0.79595  -0.75271  -0.72002
 Alpha  occ. eigenvalues --   -0.66824  -0.62328  -0.60679  -0.58616  -0.55013
 Alpha  occ. eigenvalues --   -0.54163  -0.52541  -0.50018  -0.48035  -0.47543
 Alpha  occ. eigenvalues --   -0.45333  -0.44929  -0.44757  -0.42548  -0.41134
 Alpha  occ. eigenvalues --   -0.40163  -0.38521  -0.37907  -0.36426  -0.35872
 Alpha  occ. eigenvalues --   -0.35246  -0.34509  -0.34288  -0.30801  -0.30005
 Alpha  occ. eigenvalues --   -0.28604  -0.23821
 Alpha virt. eigenvalues --    0.00646   0.01389   0.01775   0.02234   0.03649
 Alpha virt. eigenvalues --    0.04023   0.04680   0.05026   0.05130   0.06643
 Alpha virt. eigenvalues --    0.07794   0.08591   0.08772   0.09103   0.09406

 Mulliken atomic charges:
              1
     1  C   -0.406521
     2  C    0.016722
     3  N   -0.245540
     4  C   -0.257202
     5  C   -0.364524
     6  C    0.205836
     7  C   -0.227702
     8  C   -0.032972
     9  H    0.179950
    10  H    0.171781
    11  H    0.160904
    12  H    0.169755
    13  H    0.156436
    14  H    0.180435
    15  H    0.178893
    16  H    0.166714
    17  H    0.180368
    18  H    0.177253
    19  O   -0.527690
    20  H    0.372555
    21  O   -0.518818
    22  H    0.384169
    23  C   -0.273087
    24  H    0.157472
    25  H    0.158390
    26  O   -0.550306
    27  H    0.386730
 Sum of Mulliken atomic charges =   0.00000

 Dipole moment (field-independent basis, Debye):
    X=             -2.4154    Y=             -2.5550    Z=             -0.1678  Tot=              3.5200
 Quadrupole moment (field-independent basis, Debye-Ang):
   XX=            -70.1017   YY=            -87.5276   ZZ=            -71.0663
   XY=              2.3820   XZ=             -2.0188   YZ=              8.3634

 Normal termination of Gaussian 09 at Fri May 17 12:13:08 2024.
