 Gaussian 09, Revision C.01,
 Gaussian 09:  AM64L-G09RevC.01 23-Sep-2011

 ------------------------------------------------
 # mpw1pw91/6-31+G** nmr scrf=(pcm,solvent=water)
 ------------------------------------------------

 99/9=1/99;
 -------
 comment
 -------
 Charge =  0 Multiplicity = 1

                         Standard orientation:
 ---------------------------------------------------------------------
 Center     Atomic      Atomic             Coordinates (Angstroms)
 Number     Number       Type             X           Y           Z
 ---------------------------------------------------------------------
      1          6           0       -2.463886    0.607793   -0.103553
      2          6           0       -1.050332    0.588525    0.498655
      3          7           0       -0.501013   -0.783313    0.212939
      4          6           0       -1.545275   -1.569813   -0.478541
      5          6           0       -2.858587   -0.877207   -0.100275
      6          6           0        0.771212   -0.634544   -0.519543
      7          6           0        1.271478    0.747686   -0.071978
      8          6           0       -0.015327    1.569717   -0.063428
      9          1           0       -3.152838    1.241753    0.462813
     10          1           0       -2.428648    0.982167   -1.134245
     11          1           0       -1.104139    0.743065    1.584795
     12          1           0       -1.520106   -2.621670   -0.172892
     13          1           0       -1.400451   -1.538565   -1.571136
     14          1           0       -3.176672   -1.186668    0.902758
     15          1           0       -3.667914   -1.111846   -0.798438
     16          1           0        0.610512   -0.599322   -1.611837
     17          1           0        1.666984    0.689605    0.950796
     18          1           0       -0.258997    1.827853   -1.105008
     19          8           0        0.037190    2.752188    0.732877
     20          1           0        0.707955    3.330594    0.331814
     21          8           0        2.234441    1.335867   -0.942469
     22          1           0        3.084748    0.896438   -0.775675
     23          6           0        1.731151   -1.786916   -0.231294
     24          1           0        1.328545   -2.716971   -0.661001
     25          1           0        2.698172   -1.592403   -0.708935
     26          8           0        1.976057   -1.945631    1.166590
     27          1           0        1.095829   -1.871681    1.579365
 ---------------------------------------------------------------------

 SCF Done:  E(RmPW1PW91) =  -594.202345748     A.U. after   13 cycles

      1  C    Isotropic =   161.8922   Anisotropy =    25.8188

      2  C    Isotropic =   128.1524   Anisotropy =    52.9662

      3  N    Isotropic =   205.7572   Anisotropy =    72.0450

      4  C    Isotropic =   139.9303   Anisotropy =    56.7141

      5  C    Isotropic =   164.6034   Anisotropy =    22.3046

      6  C    Isotropic =   121.8510   Anisotropy =    44.6921

      7  C    Isotropic =   116.5452   Anisotropy =    42.6695

      8  C    Isotropic =   113.1837   Anisotropy =    23.3401

      9  H    Isotropic =    29.4361   Anisotropy =     9.7119

     10  H    Isotropic =    29.9669   Anisotropy =     8.1667

     11  H    Isotropic =    28.1873   Anisotropy =     6.7587

     12  H    Isotropic =    28.3942   Anisotropy =     9.4741

     13  H    Isotropic =    29.1762   Anisotropy =     8.4833

     14  H    Isotropic =    29.5505   Anisotropy =    10.6849

     15  H    Isotropic =    29.4818   Anisotropy =    11.7188

     16  H    Isotropic =    29.0662   Anisotropy =     3.6393

     17  H    Isotropic =    27.2643   Anisotropy =     2.7135

     18  H    Isotropic =    27.6637   Anisotropy =     2.4347

     19  O    Isotropic =   297.1994   Anisotropy =    42.7879

     20  H    Isotropic =    29.4199   Anisotropy =    18.6553

     21  O    Isotropic =   302.9785   Anisotropy =    38.5695

     22  H    Isotropic =    29.6314   Anisotropy =    19.7724

     23  C    Isotropic =   136.2499   Anisotropy =    58.8222

     24  H    Isotropic =    27.8443   Anisotropy =     7.6348

     25  H    Isotropic =    28.0897   Anisotropy =     6.5074

     26  O    Isotropic =   330.1870   Anisotropy =    47.5008

     27  H    Isotropic =    29.2252   Anisotropy =    16.0420

 The electronic state is 1-A.
 Alpha  occ. eigenvalues --  -19.26416 -19.26001 -19.25134 -14.41857 -10.30501
 Alpha  occ. eigenvalues --  -10.30405 -10.29572 -10.28203 -10.28054 -10.27098
 Alpha  occ. eigenvalues --  -10.24786 -10.24722  -1.07504  -1.05749  -1.05434
 Alpha  occ. eigenvalues --   -0.96877  -0.83134  -0.79717  -0.75216  -0.71846
 Alpha  occ. eigenvalues --   -0.66778  -0.61484  -0.60814  -0.58097  -0.55750
 Alpha  occ. eigenvalues --   -0.54181  -0.51335  -0.50447  -0.49347  -0.47554
 Alpha  occ. eigenvalues --   -0.45304  -0.44745  -0.44545  -0.42394  -0.40732
 Alpha  occ. eigenvalues --   -0.40393  -0.38380  -0.37363  -0.36658  -0.35720
 Alpha  occ. eigenvalues --   -0.35000  -0.34715  -0.33812  -0.30882  -0.30201
 Alpha  occ. eigenvalues --   -0.28506  -0.23744
 Alpha virt. eigenvalues --    0.00650   0.01354   0.01833   0.02042   0.03729
 Alpha virt. eigenvalues --    0.04071   0.04643   0.05058   0.05360   0.06764
 Alpha virt. eigenvalues --    0.07806   0.08514   0.08817   0.09080   0.09461

 Mulliken atomic charges:
              1
     1  C   -0.412953
     2  C   -0.051220
     3  N   -0.235952
     4  C   -0.262852
     5  C   -0.349532
     6  C    0.204646
     7  C   -0.221981
     8  C    0.032798
     9  H    0.179353
    10  H    0.170821
    11  H    0.172629
    12  H    0.169286
    13  H    0.155310
    14  H    0.180030
    15  H    0.178528
    16  H    0.164495
    17  H    0.187213
    18  H    0.169612
    19  O   -0.551102
    20  H    0.385622
    21  O   -0.533939
    22  H    0.387168
    23  C   -0.267638
    24  H    0.156940
    25  H    0.159508
    26  O   -0.553041
    27  H    0.386249
 Sum of Mulliken atomic charges =   0.00000

 Dipole moment (field-independent basis, Debye):
    X=             -1.4244    Y=             -0.8344    Z=             -2.6029  Tot=              3.0823
 Quadrupole moment (field-independent basis, Debye-Ang):
   XX=            -68.8770   YY=            -77.7020   ZZ=            -76.6531
   XY=              6.3568   XZ=             -2.5054   YZ=              2.0011

 Normal termination of Gaussian 09 at Fri May 17 12:22:51 2024.
