 Gaussian 09, Revision C.01,
 Gaussian 09:  AM64L-G09RevC.01 23-Sep-2011

 ------------------------------------------------
 # mpw1pw91/6-31+G** nmr scrf=(pcm,solvent=water)
 ------------------------------------------------

 99/9=1/99;
 -------
 comment
 -------
 Charge =  0 Multiplicity = 1

                         Standard orientation:
 ---------------------------------------------------------------------
 Center     Atomic      Atomic             Coordinates (Angstroms)
 Number     Number       Type             X           Y           Z
 ---------------------------------------------------------------------
      1          6           0        2.181167    0.572778   -0.724103
      2          6           0        0.664945    0.367100   -1.038869
      3          7           0        0.260819   -0.931122   -0.410724
      4          6           0        1.513804   -1.675036   -0.179033
      5          6           0        2.577268   -0.622457    0.165943
      6          6           0       -0.539822   -0.637201    0.815797
      7          6           0       -0.597846    0.896746    0.955978
      8          6           0       -0.297842    1.420670   -0.462165
      9          1           0        2.753276    0.567616   -1.657923
     10          1           0        2.369503    1.532430   -0.233769
     11          1           0        0.517068    0.315249   -2.122673
     12          1           0        1.788381   -2.196600   -1.105569
     13          1           0        1.367981   -2.436163    0.592851
     14          1           0        3.595731   -0.977050   -0.022921
     15          1           0        2.505740   -0.352922    1.224851
     16          1           0       -0.064011   -1.051839    1.712361
     17          1           0       -1.580543    1.247295    1.296837
     18          1           0        0.159066    2.414257   -0.431862
     19          8           0       -1.495395    1.561202   -1.230825
     20          1           0       -2.022060    0.742782   -1.092040
     21          8           0        0.413316    1.286513    1.893953
     22          1           0        0.437527    2.258619    1.900022
     23          6           0       -1.920499   -1.290397    0.677189
     24          1           0       -1.826961   -2.378615    0.785504
     25          1           0       -2.607375   -0.926873    1.446544
     26          8           0       -2.523334   -0.989956   -0.592694
     27          1           0       -1.862793   -1.295628   -1.245038
 ---------------------------------------------------------------------

 SCF Done:  E(RmPW1PW91) =  -594.200553541     A.U. after   12 cycles

      1  C    Isotropic =   163.4495   Anisotropy =    31.8162

      2  C    Isotropic =   119.2734   Anisotropy =    47.0193

      3  N    Isotropic =   192.4960   Anisotropy =    74.9160

      4  C    Isotropic =   138.9549   Anisotropy =    59.1966

      5  C    Isotropic =   169.3761   Anisotropy =    20.3738

      6  C    Isotropic =   119.8456   Anisotropy =    35.9911

      7  C    Isotropic =   109.3881   Anisotropy =    16.4735

      8  C    Isotropic =   110.0727   Anisotropy =    14.9644

      9  H    Isotropic =    29.6432   Anisotropy =    11.5319

     10  H    Isotropic =    29.8846   Anisotropy =     8.1008

     11  H    Isotropic =    28.1094   Anisotropy =     7.6904

     12  H    Isotropic =    28.6642   Anisotropy =    11.8966

     13  H    Isotropic =    28.5741   Anisotropy =     9.7660

     14  H    Isotropic =    30.1008   Anisotropy =    12.5437

     15  H    Isotropic =    29.6551   Anisotropy =     8.4616

     16  H    Isotropic =    28.7222   Anisotropy =     5.0623

     17  H    Isotropic =    27.5366   Anisotropy =     5.0772

     18  H    Isotropic =    27.8522   Anisotropy =     5.4513

     19  O    Isotropic =   275.7019   Anisotropy =    27.7865

     20  H    Isotropic =    26.8406   Anisotropy =    22.4563

     21  O    Isotropic =   279.0508   Anisotropy =    89.7977

     22  H    Isotropic =    30.2181   Anisotropy =    19.0434

     23  C    Isotropic =   129.1073   Anisotropy =    35.4404

     24  H    Isotropic =    27.9414   Anisotropy =     8.6573

     25  H    Isotropic =    28.0326   Anisotropy =     7.6769

     26  O    Isotropic =   309.5641   Anisotropy =    27.0932

     27  H    Isotropic =    28.5102   Anisotropy =    13.9592

 The electronic state is 1-A.
 Alpha  occ. eigenvalues --  -19.26706 -19.25988 -19.24566 -14.41802 -10.30636
 Alpha  occ. eigenvalues --  -10.30228 -10.29905 -10.28459 -10.27557 -10.26940
 Alpha  occ. eigenvalues --  -10.24352 -10.24020  -1.07401  -1.06376  -1.04694
 Alpha  occ. eigenvalues --   -0.96274  -0.82141  -0.78749  -0.75736  -0.71207
 Alpha  occ. eigenvalues --   -0.67516  -0.62077  -0.60140  -0.58422  -0.55020
 Alpha  occ. eigenvalues --   -0.53697  -0.51833  -0.50218  -0.48244  -0.46577
 Alpha  occ. eigenvalues --   -0.46074  -0.45564  -0.43147  -0.41869  -0.41205
 Alpha  occ. eigenvalues --   -0.40137  -0.39154  -0.37574  -0.36235  -0.35613
 Alpha  occ. eigenvalues --   -0.35092  -0.33590  -0.33044  -0.31224  -0.30920
 Alpha  occ. eigenvalues --   -0.27917  -0.24127
 Alpha virt. eigenvalues --    0.00777   0.01545   0.02229   0.02438   0.03485
 Alpha virt. eigenvalues --    0.04013   0.04360   0.04733   0.05325   0.07127
 Alpha virt. eigenvalues --    0.07574   0.07974   0.08516   0.08683   0.09865

 Mulliken atomic charges:
              1
     1  C   -0.537244
     2  C    0.222590
     3  N   -0.308014
     4  C   -0.306808
     5  C   -0.222564
     6  C    0.146841
     7  C   -0.050157
     8  C   -0.216257
     9  H    0.172714
    10  H    0.172855
    11  H    0.172477
    12  H    0.166986
    13  H    0.166696
    14  H    0.168571
    15  H    0.181842
    16  H    0.179444
    17  H    0.174053
    18  H    0.170508
    19  O   -0.568296
    20  H    0.412295
    21  O   -0.533903
    22  H    0.378190
    23  C   -0.319814
    24  H    0.166754
    25  H    0.173437
    26  O   -0.572671
    27  H    0.409474
 Sum of Mulliken atomic charges =   0.00000

 Dipole moment (field-independent basis, Debye):
    X=              2.7933    Y=             -0.9786    Z=              1.7941  Tot=              3.4611
 Quadrupole moment (field-independent basis, Debye-Ang):
   XX=            -79.0362   YY=            -68.4557   ZZ=            -75.8119
   XY=              2.7653   XZ=             -7.5729   YZ=              3.9519

 Normal termination of Gaussian 09 at Fri May 17 12:36:34 2024.
