 Gaussian 09, Revision C.01,
 Gaussian 09:  AM64L-G09RevC.01 23-Sep-2011

 ------------------------------------------------
 # mpw1pw91/6-31+G** nmr scrf=(pcm,solvent=water)
 ------------------------------------------------

 99/9=1/99;
 -------
 comment
 -------
 Charge =  0 Multiplicity = 1

                         Standard orientation:
 ---------------------------------------------------------------------
 Center     Atomic      Atomic             Coordinates (Angstroms)
 Number     Number       Type             X           Y           Z
 ---------------------------------------------------------------------
      1          6           0        2.258780   -1.117305    0.205073
      2          6           0        1.269067   -0.163389   -0.482493
      3          7           0       -0.079328   -0.818481   -0.375624
      4          6           0        0.076621   -2.083681    0.368732
      5          6           0        1.539711   -2.474783    0.145270
      6          6           0       -1.038433    0.148553    0.190528
      7          6           0       -0.397320    1.513287   -0.084930
      8          6           0        1.089831    1.237159    0.124111
      9          1           0        3.240492   -1.125610   -0.278179
     10          1           0        2.400765   -0.819793    1.251781
     11          1           0        1.532037   -0.040423   -1.542462
     12          1           0       -0.620911   -2.848759    0.009132
     13          1           0       -0.120066   -1.940923    1.445046
     14          1           0        1.663453   -2.931808   -0.844062
     15          1           0        1.899020   -3.188211    0.893364
     16          1           0       -1.121790    0.026779    1.285163
     17          1           0       -0.556139    1.801006   -1.135614
     18          1           0        1.284301    1.209288    1.205808
     19          8           0        1.869313    2.263819   -0.487923
     20          1           0        2.792369    2.126373   -0.217682
     21          8           0       -0.947750    2.502048    0.780934
     22          1           0       -0.577754    3.356560    0.503189
     23          6           0       -2.441327    0.031683   -0.398537
     24          1           0       -3.074709    0.816758    0.027839
     25          1           0       -2.400993    0.178724   -1.487062
     26          8           0       -3.083752   -1.208262   -0.081203
     27          1           0       -2.628841   -1.900568   -0.587887
 ---------------------------------------------------------------------

 SCF Done:  E(RmPW1PW91) =  -594.199089394     A.U. after   13 cycles

      1  C    Isotropic =   163.1877   Anisotropy =    24.6669

      2  C    Isotropic =   125.8382   Anisotropy =    54.8228

      3  N    Isotropic =   195.5189   Anisotropy =    91.2868

      4  C    Isotropic =   136.2809   Anisotropy =    56.9890

      5  C    Isotropic =   163.9108   Anisotropy =    24.1395

      6  C    Isotropic =   123.8535   Anisotropy =    38.0205

      7  C    Isotropic =   115.0216   Anisotropy =    42.0534

      8  C    Isotropic =   110.9166   Anisotropy =    14.8178

      9  H    Isotropic =    29.5573   Anisotropy =     9.7929

     10  H    Isotropic =    30.1347   Anisotropy =     8.1854

     11  H    Isotropic =    28.2421   Anisotropy =     6.9247

     12  H    Isotropic =    28.4075   Anisotropy =     8.4017

     13  H    Isotropic =    28.9359   Anisotropy =     7.5366

     14  H    Isotropic =    29.5190   Anisotropy =    10.5673

     15  H    Isotropic =    29.4712   Anisotropy =    11.5056

     16  H    Isotropic =    28.7283   Anisotropy =     4.6419

     17  H    Isotropic =    27.6577   Anisotropy =     1.4626

     18  H    Isotropic =    27.8013   Anisotropy =     3.1663

     19  O    Isotropic =   296.6590   Anisotropy =    30.0699

     20  H    Isotropic =    29.7751   Anisotropy =    18.8635

     21  O    Isotropic =   296.5698   Anisotropy =    41.5236

     22  H    Isotropic =    29.3815   Anisotropy =    19.1637

     23  C    Isotropic =   124.9650   Anisotropy =    49.1765

     24  H    Isotropic =    27.7218   Anisotropy =     5.3144

     25  H    Isotropic =    27.9640   Anisotropy =     5.4961

     26  O    Isotropic =   306.9851   Anisotropy =    22.2342

     27  H    Isotropic =    30.0541   Anisotropy =    14.7597

 The electronic state is 1-A.
 Alpha  occ. eigenvalues --  -19.26214 -19.26183 -19.25615 -14.41472 -10.30811
 Alpha  occ. eigenvalues --  -10.30340 -10.29402 -10.28137 -10.27800 -10.27102
 Alpha  occ. eigenvalues --  -10.24773 -10.24749  -1.07467  -1.05790  -1.05609
 Alpha  occ. eigenvalues --   -0.96751  -0.83348  -0.79407  -0.75478  -0.71873
 Alpha  occ. eigenvalues --   -0.66246  -0.61546  -0.60617  -0.58485  -0.56328
 Alpha  occ. eigenvalues --   -0.53664  -0.52883  -0.50091  -0.48875  -0.47113
 Alpha  occ. eigenvalues --   -0.46033  -0.43886  -0.43421  -0.42864  -0.41136
 Alpha  occ. eigenvalues --   -0.39546  -0.39156  -0.38232  -0.36160  -0.35287
 Alpha  occ. eigenvalues --   -0.34990  -0.34800  -0.33664  -0.31183  -0.30103
 Alpha  occ. eigenvalues --   -0.29023  -0.23095
 Alpha virt. eigenvalues --    0.00818   0.01134   0.01819   0.02302   0.03158
 Alpha virt. eigenvalues --    0.04253   0.04663   0.05019   0.05571   0.06445
 Alpha virt. eigenvalues --    0.07822   0.08150   0.08732   0.09182   0.09461

 Mulliken atomic charges:
              1
     1  C   -0.367282
     2  C   -0.063821
     3  N   -0.188427
     4  C   -0.190295
     5  C   -0.417932
     6  C    0.096426
     7  C   -0.014348
     8  C   -0.087420
     9  H    0.179551
    10  H    0.171331
    11  H    0.171434
    12  H    0.157259
    13  H    0.155909
    14  H    0.180465
    15  H    0.178609
    16  H    0.164373
    17  H    0.174476
    18  H    0.173088
    19  O   -0.554073
    20  H    0.389757
    21  O   -0.556530
    22  H    0.390753
    23  C   -0.311334
    24  H    0.169384
    25  H    0.161486
    26  O   -0.536724
    27  H    0.373885
 Sum of Mulliken atomic charges =   0.00000

 Dipole moment (field-independent basis, Debye):
    X=              4.9274    Y=             -0.8045    Z=             -0.3466  Tot=              5.0047
 Quadrupole moment (field-independent basis, Debye-Ang):
   XX=            -76.9123   YY=            -69.5615   ZZ=            -75.5320
   XY=             -1.9574   XZ=              6.5683   YZ=              0.1635

 Normal termination of Gaussian 09 at Fri May 17 12:28:30 2024.
