 Gaussian 09, Revision C.01,
 Gaussian 09:  AM64L-G09RevC.01 23-Sep-2011

 ------------------------------------------------
 # mpw1pw91/6-31+G** nmr scrf=(pcm,solvent=water)
 ------------------------------------------------

 99/9=1/99;
 -------
 comment
 -------
 Charge =  0 Multiplicity = 1

                         Standard orientation:
 ---------------------------------------------------------------------
 Center     Atomic      Atomic             Coordinates (Angstroms)
 Number     Number       Type             X           Y           Z
 ---------------------------------------------------------------------
      1          6           0        2.602189    0.178463   -0.203215
      2          6           0        1.165813    0.476985   -0.664576
      3          7           0        0.374979   -0.775254   -0.401489
      4          6           0        1.250399   -1.733608    0.296396
      5          6           0        2.658633   -1.359600   -0.171648
      6          6           0       -0.866467   -0.414916    0.306929
      7          6           0       -1.059317    1.086905    0.012367
      8          6           0        0.386498    1.616524    0.028541
      9          1           0        3.352204    0.624827   -0.862686
     10          1           0        2.767956    0.565651    0.807656
     11          1           0        1.156980    0.683834   -1.743763
     12          1           0        0.984140   -2.768470    0.051929
     13          1           0        1.171157   -1.624514    1.392287
     14          1           0        2.843790   -1.759916   -1.175700
     15          1           0        3.436311   -1.747269    0.493807
     16          1           0       -0.738790   -0.518774    1.397846
     17          1           0       -1.665101    1.578489    0.776605
     18          1           0        0.469042    2.564727   -0.515505
     19          8           0        0.731069    1.800078    1.405848
     20          1           0        1.608576    2.215161    1.433945
     21          8           0       -1.719593    1.356950   -1.227489
     22          1           0       -1.266834    0.863736   -1.932344
     23          6           0       -2.039810   -1.303088   -0.107893
     24          1           0       -2.215062   -1.218693   -1.188119
     25          1           0       -1.799200   -2.348675    0.109723
     26          8           0       -3.231967   -1.009645    0.630019
     27          1           0       -3.553736   -0.148396    0.316303
 ---------------------------------------------------------------------

 SCF Done:  E(RmPW1PW91) =  -594.195754165     A.U. after   13 cycles

      1  C    Isotropic =   171.2788   Anisotropy =    19.4640

      2  C    Isotropic =   126.8594   Anisotropy =    58.9957

      3  N    Isotropic =   194.2951   Anisotropy =    88.2209

      4  C    Isotropic =   138.8433   Anisotropy =    56.6466

      5  C    Isotropic =   163.4231   Anisotropy =    25.9798

      6  C    Isotropic =   125.0135   Anisotropy =    54.8092

      7  C    Isotropic =   112.4012   Anisotropy =    33.8152

      8  C    Isotropic =   117.5827   Anisotropy =    32.6027

      9  H    Isotropic =    29.9267   Anisotropy =    11.7374

     10  H    Isotropic =    29.9259   Anisotropy =     7.2357

     11  H    Isotropic =    27.7892   Anisotropy =     7.7439

     12  H    Isotropic =    28.4421   Anisotropy =     9.5735

     13  H    Isotropic =    29.1880   Anisotropy =     8.1502

     14  H    Isotropic =    29.3866   Anisotropy =    10.6939

     15  H    Isotropic =    29.4550   Anisotropy =    11.6540

     16  H    Isotropic =    28.6259   Anisotropy =     4.3442

     17  H    Isotropic =    27.1552   Anisotropy =     4.3882

     18  H    Isotropic =    27.6580   Anisotropy =     6.7385

     19  O    Isotropic =   291.2636   Anisotropy =    50.8837

     20  H    Isotropic =    30.0356   Anisotropy =    19.2395

     21  O    Isotropic =   302.7694   Anisotropy =    30.5628

     22  H    Isotropic =    30.1462   Anisotropy =    14.2720

     23  C    Isotropic =   132.5323   Anisotropy =    72.5855

     24  H    Isotropic =    27.7768   Anisotropy =     3.1110

     25  H    Isotropic =    27.9538   Anisotropy =     4.9215

     26  O    Isotropic =   311.6069   Anisotropy =    35.6601

     27  H    Isotropic =    30.2225   Anisotropy =    15.5525

 The electronic state is 1-A.
 Alpha  occ. eigenvalues --  -19.26450 -19.26091 -19.25681 -14.41334 -10.30838
 Alpha  occ. eigenvalues --  -10.30585 -10.29468 -10.28006 -10.27883 -10.26933
 Alpha  occ. eigenvalues --  -10.24906 -10.24763  -1.07524  -1.06099  -1.05534
 Alpha  occ. eigenvalues --   -0.96383  -0.82915  -0.79273  -0.75052  -0.72461
 Alpha  occ. eigenvalues --   -0.67001  -0.61772  -0.60552  -0.58194  -0.55361
 Alpha  occ. eigenvalues --   -0.53259  -0.52771  -0.50530  -0.49261  -0.47128
 Alpha  occ. eigenvalues --   -0.45371  -0.45178  -0.43541  -0.42803  -0.40492
 Alpha  occ. eigenvalues --   -0.39288  -0.38734  -0.37982  -0.36600  -0.35850
 Alpha  occ. eigenvalues --   -0.35119  -0.34920  -0.33067  -0.31034  -0.29983
 Alpha  occ. eigenvalues --   -0.29563  -0.23158
 Alpha virt. eigenvalues --    0.00619   0.00793   0.01794   0.02420   0.03762
 Alpha virt. eigenvalues --    0.04108   0.04830   0.05091   0.05489   0.06456
 Alpha virt. eigenvalues --    0.07675   0.07764   0.08690   0.09383   0.09503

 Mulliken atomic charges:
              1
     1  C   -0.452365
     2  C    0.008494
     3  N   -0.155029
     4  C   -0.240643
     5  C   -0.367002
     6  C   -0.099793
     7  C   -0.363411
     8  C    0.184223
     9  H    0.179647
    10  H    0.159904
    11  H    0.168924
    12  H    0.166771
    13  H    0.148637
    14  H    0.179478
    15  H    0.177853
    16  H    0.168890
    17  H    0.188884
    18  H    0.174847
    19  O   -0.575248
    20  H    0.384826
    21  O   -0.517941
    22  H    0.383988
    23  C   -0.075465
    24  H    0.160943
    25  H    0.167283
    26  O   -0.537819
    27  H    0.381124
 Sum of Mulliken atomic charges =   0.00000

 Dipole moment (field-independent basis, Debye):
    X=              4.9644    Y=              1.0678    Z=             -1.7175  Tot=              5.3605
 Quadrupole moment (field-independent basis, Debye-Ang):
   XX=            -74.8433   YY=            -73.0618   ZZ=            -75.4090
   XY=              0.1579   XZ=              3.4756   YZ=              0.7400

 Normal termination of Gaussian 09 at Fri May 17 12:13:55 2024.
