 Gaussian 09, Revision C.01,
 Gaussian 09:  AM64L-G09RevC.01 23-Sep-2011

 ------------------------------------------------
 # mpw1pw91/6-31+G** nmr scrf=(pcm,solvent=water)
 ------------------------------------------------

 99/9=1/99;
 -------
 comment
 -------
 Charge =  0 Multiplicity = 1

                         Standard orientation:
 ---------------------------------------------------------------------
 Center     Atomic      Atomic             Coordinates (Angstroms)
 Number     Number       Type             X           Y           Z
 ---------------------------------------------------------------------
      1          6           0        2.596936   -0.025611   -0.351225
      2          6           0        1.194446    0.458347   -0.780123
      3          7           0        0.282132   -0.735567   -0.682385
      4          6           0        1.092520   -1.878197   -0.204992
      5          6           0        2.316011   -1.275122    0.498433
      6          6           0       -0.847633   -0.376339    0.204450
      7          6           0       -0.945436    1.153898    0.080302
      8          6           0        0.541116    1.563441    0.072929
      9          1           0        3.176083   -0.299389   -1.240426
     10          1           0        3.154974    0.746590    0.184550
     11          1           0        1.219733    0.815084   -1.816436
     12          1           0        1.414119   -2.484852   -1.062278
     13          1           0        0.490931   -2.524789    0.441252
     14          1           0        3.164305   -1.966438    0.539415
     15          1           0        2.061681   -0.988905    1.524908
     16          1           0       -0.617907   -0.600951    1.258981
     17          1           0       -1.481646    1.602077    0.920470
     18          1           0        0.678023    2.557883   -0.369707
     19          8           0        1.073368    1.536375    1.402228
     20          1           0        0.605535    2.221483    1.909264
     21          8           0       -1.629432    1.604007   -1.092986
     22          1           0       -1.229989    1.168125   -1.864551
     23          6           0       -2.112987   -1.137272   -0.164709
     24          1           0       -2.450979   -0.843529   -1.167037
     25          1           0       -1.897753   -2.215336   -0.185421
     26          8           0       -3.113335   -0.842280    0.817698
     27          1           0       -3.916669   -1.321773    0.557806
 ---------------------------------------------------------------------

 SCF Done:  E(RmPW1PW91) =  -594.194990048     A.U. after   13 cycles

      1  C    Isotropic =   167.9665   Anisotropy =    24.7266

      2  C    Isotropic =   129.3187   Anisotropy =    60.3744

      3  N    Isotropic =   196.9462   Anisotropy =    80.2549

      4  C    Isotropic =   141.6835   Anisotropy =    54.6160

      5  C    Isotropic =   168.6731   Anisotropy =    24.0132

      6  C    Isotropic =   126.8820   Anisotropy =    52.5621

      7  C    Isotropic =   114.1587   Anisotropy =    37.3268

      8  C    Isotropic =   116.1737   Anisotropy =    29.2980

      9  H    Isotropic =    29.8749   Anisotropy =    12.4495

     10  H    Isotropic =    29.4418   Anisotropy =     9.4559

     11  H    Isotropic =    27.8496   Anisotropy =     8.5127

     12  H    Isotropic =    28.7973   Anisotropy =    12.0003

     13  H    Isotropic =    28.7493   Anisotropy =     8.6147

     14  H    Isotropic =    30.1292   Anisotropy =    12.8286

     15  H    Isotropic =    29.7915   Anisotropy =     7.9324

     16  H    Isotropic =    28.5147   Anisotropy =     4.6526

     17  H    Isotropic =    27.6114   Anisotropy =     4.8461

     18  H    Isotropic =    27.5359   Anisotropy =     6.6317

     19  O    Isotropic =   291.7852   Anisotropy =    81.7899

     20  H    Isotropic =    30.3577   Anisotropy =    20.2187

     21  O    Isotropic =   302.4052   Anisotropy =    31.5677

     22  H    Isotropic =    30.3156   Anisotropy =    14.1058

     23  C    Isotropic =   132.6880   Anisotropy =    72.1736

     24  H    Isotropic =    27.6993   Anisotropy =     2.4937

     25  H    Isotropic =    27.8557   Anisotropy =     4.9768

     26  O    Isotropic =   316.2191   Anisotropy =    94.6463

     27  H    Isotropic =    30.3836   Anisotropy =    21.6852

 The electronic state is 1-A.
 Alpha  occ. eigenvalues --  -19.26027 -19.25828 -19.25521 -14.41303 -10.30470
 Alpha  occ. eigenvalues --  -10.30347 -10.29377 -10.27924 -10.27895 -10.26782
 Alpha  occ. eigenvalues --  -10.24484 -10.24109  -1.07182  -1.05787  -1.05415
 Alpha  occ. eigenvalues --   -0.96170  -0.82342  -0.79149  -0.75194  -0.71797
 Alpha  occ. eigenvalues --   -0.66616  -0.62427  -0.59537  -0.57462  -0.54910
 Alpha  occ. eigenvalues --   -0.53282  -0.52837  -0.50552  -0.49071  -0.47361
 Alpha  occ. eigenvalues --   -0.46146  -0.43691  -0.42707  -0.41800  -0.41223
 Alpha  occ. eigenvalues --   -0.39184  -0.38051  -0.37591  -0.36721  -0.35458
 Alpha  occ. eigenvalues --   -0.34943  -0.34597  -0.32658  -0.31817  -0.29675
 Alpha  occ. eigenvalues --   -0.28178  -0.23408
 Alpha virt. eigenvalues --    0.00577   0.01086   0.01707   0.02284   0.03439
 Alpha virt. eigenvalues --    0.04125   0.04695   0.04858   0.05519   0.06412
 Alpha virt. eigenvalues --    0.07771   0.08173   0.08616   0.08998   0.09467

 Mulliken atomic charges:
              1
     1  C   -0.526892
     2  C    0.067367
     3  N   -0.163698
     4  C   -0.246061
     5  C   -0.255126
     6  C   -0.347397
     7  C   -0.219575
     8  C    0.095210
     9  H    0.175090
    10  H    0.181503
    11  H    0.170638
    12  H    0.163290
    13  H    0.162572
    14  H    0.168665
    15  H    0.181297
    16  H    0.178160
    17  H    0.177033
    18  H    0.172351
    19  O   -0.563246
    20  H    0.387508
    21  O   -0.519754
    22  H    0.382550
    23  C    0.046982
    24  H    0.158543
    25  H    0.153939
    26  O   -0.574164
    27  H    0.393217
 Sum of Mulliken atomic charges =   0.00000

 Dipole moment (field-independent basis, Debye):
    X=              0.9591    Y=             -1.0921    Z=             -0.7790  Tot=              1.6490
 Quadrupole moment (field-independent basis, Debye-Ang):
   XX=            -72.6849   YY=            -67.6534   ZZ=            -73.0038
   XY=              6.5074   XZ=             -0.6388   YZ=              3.1814

 Normal termination of Gaussian 09 at Fri May 17 12:11:27 2024.
