 Gaussian 09, Revision C.01,
 Gaussian 09:  AM64L-G09RevC.01 23-Sep-2011

 ------------------------------------------------
 # mpw1pw91/6-31+G** nmr scrf=(pcm,solvent=water)
 ------------------------------------------------

 99/9=1/99;
 -------
 comment
 -------
 Charge =  0 Multiplicity = 1

                         Standard orientation:
 ---------------------------------------------------------------------
 Center     Atomic      Atomic             Coordinates (Angstroms)
 Number     Number       Type             X           Y           Z
 ---------------------------------------------------------------------
      1          6           0       -2.295516    0.596777    0.106596
      2          6           0       -0.957919    0.340360    0.866420
      3          7           0       -0.462048   -1.007951    0.445220
      4          6           0       -1.659630   -1.720503   -0.041527
      5          6           0       -2.503876   -0.660435   -0.764545
      6          6           0        0.595429   -0.824684   -0.600808
      7          6           0        0.739705    0.702043   -0.780762
      8          6           0        0.210210    1.281161    0.526894
      9          1           0       -3.112880    0.711875    0.826076
     10          1           0       -2.256702    1.514486   -0.486698
     11          1           0       -1.144168    0.338783    1.945361
     12          1           0       -2.208353   -2.114596    0.823721
     13          1           0       -1.371106   -2.570679   -0.666089
     14          1           0       -3.556609   -0.945866   -0.859238
     15          1           0       -2.109655   -0.499104   -1.775336
     16          1           0        0.282532   -1.279559   -1.547984
     17          1           0        0.069936    1.029798   -1.589185
     18          1           0        0.989622    1.184370    1.292935
     19          8           0       -0.124607    2.655511    0.348250
     20          1           0       -0.269632    3.039245    1.229206
     21          8           0        2.078207    1.082122   -1.091550
     22          1           0        2.077613    2.051653   -1.165239
     23          6           0        1.873581   -1.542398   -0.156956
     24          1           0        1.691214   -2.627158   -0.188820
     25          1           0        2.699383   -1.322139   -0.838537
     26          8           0        2.291613   -1.148248    1.151178
     27          1           0        1.479530   -1.204452    1.688392
 ---------------------------------------------------------------------

 SCF Done:  E(RmPW1PW91) =  -594.195994026     A.U. after   12 cycles

      1  C    Isotropic =   169.2977   Anisotropy =    25.1837

      2  C    Isotropic =   128.5147   Anisotropy =    60.2982

      3  N    Isotropic =   194.6149   Anisotropy =    62.2873

      4  C    Isotropic =   139.2252   Anisotropy =    57.1556

      5  C    Isotropic =   169.4261   Anisotropy =    20.4566

      6  C    Isotropic =   127.5277   Anisotropy =    45.6143

      7  C    Isotropic =   119.9464   Anisotropy =    47.1793

      8  C    Isotropic =   115.2543   Anisotropy =    39.3933

      9  H    Isotropic =    30.0156   Anisotropy =    12.2934

     10  H    Isotropic =    29.6089   Anisotropy =     7.5934

     11  H    Isotropic =    28.1152   Anisotropy =     8.3762

     12  H    Isotropic =    28.7722   Anisotropy =    11.9715

     13  H    Isotropic =    28.6613   Anisotropy =     9.9686

     14  H    Isotropic =    29.9549   Anisotropy =    12.4879

     15  H    Isotropic =    30.0146   Anisotropy =     9.0359

     16  H    Isotropic =    28.8402   Anisotropy =     4.7881

     17  H    Isotropic =    27.5057   Anisotropy =     4.6741

     18  H    Isotropic =    27.0661   Anisotropy =     5.1346

     19  O    Isotropic =   300.2065   Anisotropy =    64.9494

     20  H    Isotropic =    29.9129   Anisotropy =    20.8613

     21  O    Isotropic =   302.8034   Anisotropy =    40.0276

     22  H    Isotropic =    29.5833   Anisotropy =    18.9245

     23  C    Isotropic =   133.8800   Anisotropy =    49.7554

     24  H    Isotropic =    28.1050   Anisotropy =     9.2311

     25  H    Isotropic =    27.7715   Anisotropy =     6.4039

     26  O    Isotropic =   318.5369   Anisotropy =    33.3554

     27  H    Isotropic =    29.1709   Anisotropy =    14.5443

 The electronic state is 1-A.
 Alpha  occ. eigenvalues --  -19.26179 -19.25794 -19.24747 -14.42049 -10.30506
 Alpha  occ. eigenvalues --  -10.30232 -10.28933 -10.28367 -10.27793 -10.27075
 Alpha  occ. eigenvalues --  -10.24435 -10.24319  -1.07372  -1.05601  -1.04957
 Alpha  occ. eigenvalues --   -0.96862  -0.82088  -0.79232  -0.75561  -0.71490
 Alpha  occ. eigenvalues --   -0.66698  -0.61933  -0.59793  -0.58506  -0.55395
 Alpha  occ. eigenvalues --   -0.52827  -0.51163  -0.49798  -0.49429  -0.48283
 Alpha  occ. eigenvalues --   -0.45611  -0.44603  -0.44052  -0.41258  -0.41003
 Alpha  occ. eigenvalues --   -0.40019  -0.38273  -0.37152  -0.36379  -0.35489
 Alpha  occ. eigenvalues --   -0.34784  -0.34029  -0.33489  -0.30836  -0.29304
 Alpha  occ. eigenvalues --   -0.28563  -0.24258
 Alpha virt. eigenvalues --    0.00426   0.01130   0.01589   0.02428   0.03702
 Alpha virt. eigenvalues --    0.04131   0.04389   0.04761   0.05261   0.07347
 Alpha virt. eigenvalues --    0.07898   0.08157   0.08666   0.08780   0.09482

 Mulliken atomic charges:
              1
     1  C   -0.429277
     2  C    0.044288
     3  N   -0.214321
     4  C   -0.288217
     5  C   -0.231357
     6  C    0.108249
     7  C   -0.062185
     8  C   -0.252723
     9  H    0.174036
    10  H    0.187490
    11  H    0.176772
    12  H    0.169178
    13  H    0.170435
    14  H    0.173086
    15  H    0.172724
    16  H    0.173244
    17  H    0.175485
    18  H    0.188097
    19  O   -0.546922
    20  H    0.388433
    21  O   -0.545372
    22  H    0.383292
    23  C   -0.268526
    24  H    0.151097
    25  H    0.169209
    26  O   -0.550582
    27  H    0.384368
 Sum of Mulliken atomic charges =   0.00000

 Dipole moment (field-independent basis, Debye):
    X=             -4.8104    Y=              0.6704    Z=              0.1198  Tot=              4.8583
 Quadrupole moment (field-independent basis, Debye-Ang):
   XX=            -82.9300   YY=            -69.0855   ZZ=            -69.2583
   XY=              4.2954   XZ=             -4.1731   YZ=              7.2818

 Normal termination of Gaussian 09 at Fri May 17 12:10:22 2024.
