 Gaussian 09, Revision C.01,
 Gaussian 09:  AM64L-G09RevC.01 23-Sep-2011

 ------------------------------------------------
 # mpw1pw91/6-31+G** nmr scrf=(pcm,solvent=water)
 ------------------------------------------------

 99/9=1/99;
 -------
 comment
 -------
 Charge =  0 Multiplicity = 1

                         Standard orientation:
 ---------------------------------------------------------------------
 Center     Atomic      Atomic             Coordinates (Angstroms)
 Number     Number       Type             X           Y           Z
 ---------------------------------------------------------------------
      1          6           0        2.200560   -0.889738    0.034643
      2          6           0        1.078990   -0.267402   -0.855409
      3          7           0       -0.201179   -0.954423   -0.496137
      4          6           0        0.208647   -2.234795    0.116334
      5          6           0        1.478790   -1.926672    0.921310
      6          6           0       -0.972324   -0.062754    0.427947
      7          6           0       -0.101918    1.198115    0.626481
      8          6           0        0.779697    1.216172   -0.619961
      9          1           0        2.946719   -1.376431   -0.601871
     10          1           0        2.722133   -0.131740    0.624487
     11          1           0        1.308088   -0.446572   -1.910508
     12          1           0        0.437659   -2.949431   -0.684971
     13          1           0       -0.611485   -2.651835    0.706497
     14          1           0        2.085588   -2.816814    1.116427
     15          1           0        1.209448   -1.487876    1.889898
     16          1           0       -1.135842   -0.573799    1.383694
     17          1           0        0.540511    1.069063    1.507505
     18          1           0        0.180576    1.603021   -1.457370
     19          8           0        1.973387    1.982202   -0.491247
     20          1           0        1.697612    2.900030   -0.328001
     21          8           0       -0.813407    2.432288    0.727730
     22          1           0       -1.252171    2.446742    1.594536
     23          6           0       -2.349584    0.232019   -0.174219
     24          1           0       -2.968542    0.789917    0.534475
     25          1           0       -2.252774    0.836869   -1.087340
     26          8           0       -3.039976   -0.988900   -0.452135
     27          1           0       -2.396445   -1.524573   -0.952039
 ---------------------------------------------------------------------

 SCF Done:  E(RmPW1PW91) =  -594.196389462     A.U. after   13 cycles

      1  C    Isotropic =   169.4482   Anisotropy =    25.4492

      2  C    Isotropic =   129.6055   Anisotropy =    60.8798

      3  N    Isotropic =   191.5334   Anisotropy =    56.0106

      4  C    Isotropic =   137.7130   Anisotropy =    59.3179

      5  C    Isotropic =   169.2844   Anisotropy =    20.8654

      6  C    Isotropic =   126.1600   Anisotropy =    39.7132

      7  C    Isotropic =   118.0767   Anisotropy =    41.2598

      8  C    Isotropic =   116.9834   Anisotropy =    41.6275

      9  H    Isotropic =    30.0102   Anisotropy =    12.2953

     10  H    Isotropic =    29.5112   Anisotropy =     7.7496

     11  H    Isotropic =    27.9592   Anisotropy =     9.0782

     12  H    Isotropic =    28.7148   Anisotropy =    11.6169

     13  H    Isotropic =    28.7883   Anisotropy =     8.8956

     14  H    Isotropic =    29.9638   Anisotropy =    12.5196

     15  H    Isotropic =    30.0640   Anisotropy =     9.0800

     16  H    Isotropic =    28.8903   Anisotropy =     5.5445

     17  H    Isotropic =    27.4731   Anisotropy =     4.7775

     18  H    Isotropic =    27.1051   Anisotropy =     3.0020

     19  O    Isotropic =   300.6998   Anisotropy =    32.8243

     20  H    Isotropic =    29.3901   Anisotropy =    19.0588

     21  O    Isotropic =   305.2681   Anisotropy =    52.9085

     22  H    Isotropic =    30.0249   Anisotropy =    19.8041

     23  C    Isotropic =   130.7959   Anisotropy =    45.9301

     24  H    Isotropic =    28.0764   Anisotropy =     5.7619

     25  H    Isotropic =    28.1923   Anisotropy =     6.1714

     26  O    Isotropic =   319.9760   Anisotropy =    31.2720

     27  H    Isotropic =    29.2484   Anisotropy =    15.2290

 The electronic state is 1-A.
 Alpha  occ. eigenvalues --  -19.26402 -19.26028 -19.25028 -14.42109 -10.30710
 Alpha  occ. eigenvalues --  -10.30607 -10.29134 -10.28206 -10.28104 -10.27057
 Alpha  occ. eigenvalues --  -10.24442 -10.24384  -1.07564  -1.05756  -1.05304
 Alpha  occ. eigenvalues --   -0.96951  -0.82261  -0.79384  -0.75487  -0.71593
 Alpha  occ. eigenvalues --   -0.66965  -0.61938  -0.60330  -0.58139  -0.56150
 Alpha  occ. eigenvalues --   -0.52570  -0.51842  -0.49786  -0.49070  -0.47862
 Alpha  occ. eigenvalues --   -0.46955  -0.44992  -0.43735  -0.41301  -0.40846
 Alpha  occ. eigenvalues --   -0.40041  -0.38384  -0.37955  -0.36255  -0.35655
 Alpha  occ. eigenvalues --   -0.34728  -0.34113  -0.33333  -0.31256  -0.29462
 Alpha  occ. eigenvalues --   -0.29105  -0.24232
 Alpha virt. eigenvalues --    0.00595   0.00891   0.01574   0.02256   0.04098
 Alpha virt. eigenvalues --    0.04213   0.04352   0.04658   0.05350   0.07096
 Alpha virt. eigenvalues --    0.07631   0.08074   0.08896   0.09335   0.09647

 Mulliken atomic charges:
              1
     1  C   -0.383862
     2  C   -0.061604
     3  N   -0.176732
     4  C   -0.193347
     5  C   -0.259538
     6  C   -0.170342
     7  C   -0.082087
     8  C   -0.188669
     9  H    0.174634
    10  H    0.188824
    11  H    0.177202
    12  H    0.170756
    13  H    0.173274
    14  H    0.173750
    15  H    0.172894
    16  H    0.181424
    17  H    0.183864
    18  H    0.176137
    19  O   -0.534578
    20  H    0.384324
    21  O   -0.556335
    22  H    0.394823
    23  C   -0.114250
    24  H    0.164308
    25  H    0.157420
    26  O   -0.531825
    27  H    0.379535
 Sum of Mulliken atomic charges =   0.00000

 Dipole moment (field-independent basis, Debye):
    X=              1.6663    Y=             -0.0437    Z=              2.5762  Tot=              3.0684
 Quadrupole moment (field-independent basis, Debye-Ang):
   XX=            -89.3242   YY=            -69.3626   ZZ=            -68.0258
   XY=             -7.5783   XZ=             -3.1076   YZ=              3.3828

 Normal termination of Gaussian 09 at Fri May 17 12:15:04 2024.
