 Gaussian 09, Revision C.01,
 Gaussian 09:  AM64L-G09RevC.01 23-Sep-2011

 ------------------------------------------------
 # mpw1pw91/6-31+G** nmr scrf=(pcm,solvent=water)
 ------------------------------------------------

 99/9=1/99;
 -------
 comment
 -------
 Charge =  0 Multiplicity = 1

                         Standard orientation:
 ---------------------------------------------------------------------
 Center     Atomic      Atomic             Coordinates (Angstroms)
 Number     Number       Type             X           Y           Z
 ---------------------------------------------------------------------
      1          6           0        2.377155   -0.571461   -0.615766
      2          6           0        1.111237    0.279464   -0.839315
      3          7           0       -0.057096   -0.632318   -0.598401
      4          6           0        0.474205   -1.944179   -0.159476
      5          6           0        1.909089   -1.693957    0.323808
      6          6           0       -0.973588    0.031261    0.357987
      7          6           0       -0.619196    1.519821    0.265119
      8          6           0        0.905879    1.485792    0.103560
      9          1           0        2.707372   -0.994025   -1.571526
     10          1           0        3.214467    0.010628   -0.214695
     11          1           0        1.081794    0.660560   -1.866851
     12          1           0        0.482996   -2.643112   -1.007200
     13          1           0       -0.173417   -2.377213    0.608134
     14          1           0        2.537306   -2.589245    0.270076
     15          1           0        1.904181   -1.341782    1.360731
     16          1           0       -0.757107   -0.283032    1.391508
     17          1           0       -0.919637    2.066206    1.167234
     18          1           0        1.285496    2.416531   -0.338753
     19          8           0        1.451397    1.307793    1.415483
     20          1           0        2.416582    1.243713    1.327119
     21          8           0       -1.238765    2.084764   -0.895281
     22          1           0       -0.979824    3.021028   -0.927593
     23          6           0       -2.449287   -0.270231    0.098417
     24          1           0       -3.066063    0.339232    0.767873
     25          1           0       -2.716874   -0.020631   -0.934701
     26          8           0       -2.795230   -1.632432    0.385288
     27          1           0       -2.369783   -2.182692   -0.292466
 ---------------------------------------------------------------------

 SCF Done:  E(RmPW1PW91) =  -594.194648016     A.U. after   13 cycles

      1  C    Isotropic =   168.4629   Anisotropy =    23.9362

      2  C    Isotropic =   125.1162   Anisotropy =    59.4347

      3  N    Isotropic =   190.9888   Anisotropy =    81.0946

      4  C    Isotropic =   140.2768   Anisotropy =    58.1231

      5  C    Isotropic =   168.0852   Anisotropy =    24.4867

      6  C    Isotropic =   124.9405   Anisotropy =    34.3103

      7  C    Isotropic =   114.2093   Anisotropy =    29.6255

      8  C    Isotropic =   114.4953   Anisotropy =    28.4282

      9  H    Isotropic =    29.7490   Anisotropy =    12.3949

     10  H    Isotropic =    29.9744   Anisotropy =     9.6104

     11  H    Isotropic =    27.6544   Anisotropy =     8.1025

     12  H    Isotropic =    28.5563   Anisotropy =    11.4861

     13  H    Isotropic =    28.6772   Anisotropy =     7.4368

     14  H    Isotropic =    30.0842   Anisotropy =    12.8184

     15  H    Isotropic =    29.8398   Anisotropy =     7.8114

     16  H    Isotropic =    28.5591   Anisotropy =     5.7334

     17  H    Isotropic =    27.3338   Anisotropy =     5.3479

     18  H    Isotropic =    27.8077   Anisotropy =     6.8231

     19  O    Isotropic =   299.3655   Anisotropy =    46.3081

     20  H    Isotropic =    29.9952   Anisotropy =    17.8610

     21  O    Isotropic =   296.0255   Anisotropy =    70.2076

     22  H    Isotropic =    30.4325   Anisotropy =    20.1744

     23  C    Isotropic =   127.7037   Anisotropy =    46.5142

     24  H    Isotropic =    27.7805   Anisotropy =     6.4880

     25  H    Isotropic =    27.6459   Anisotropy =     6.1866

     26  O    Isotropic =   310.9527   Anisotropy =    42.1341

     27  H    Isotropic =    30.2893   Anisotropy =    14.9748

 The electronic state is 1-A.
 Alpha  occ. eigenvalues --  -19.25981 -19.25943 -19.25417 -14.40980 -10.30740
 Alpha  occ. eigenvalues --  -10.30432 -10.29179 -10.27836 -10.27681 -10.26722
 Alpha  occ. eigenvalues --  -10.24971 -10.24265  -1.07249  -1.05786  -1.05404
 Alpha  occ. eigenvalues --   -0.95873  -0.82693  -0.78911  -0.75426  -0.72012
 Alpha  occ. eigenvalues --   -0.66487  -0.61366  -0.60205  -0.58109  -0.55698
 Alpha  occ. eigenvalues --   -0.52931  -0.51628  -0.50523  -0.49536  -0.47714
 Alpha  occ. eigenvalues --   -0.45628  -0.44580  -0.43275  -0.41582  -0.41046
 Alpha  occ. eigenvalues --   -0.39110  -0.38260  -0.37882  -0.35855  -0.35537
 Alpha  occ. eigenvalues --   -0.34606  -0.34503  -0.33994  -0.31049  -0.29553
 Alpha  occ. eigenvalues --   -0.29138  -0.22854
 Alpha virt. eigenvalues --    0.00500   0.01338   0.01658   0.02331   0.03230
 Alpha virt. eigenvalues --    0.04189   0.04804   0.05287   0.05526   0.06632
 Alpha virt. eigenvalues --    0.07479   0.08080   0.08292   0.08503   0.09992

 Mulliken atomic charges:
              1
     1  C   -0.466600
     2  C    0.023131
     3  N   -0.171060
     4  C   -0.218308
     5  C   -0.304061
     6  C    0.112571
     7  C   -0.245562
     8  C    0.034584
     9  H    0.183270
    10  H    0.160024
    11  H    0.165095
    12  H    0.163976
    13  H    0.164022
    14  H    0.170235
    15  H    0.179542
    16  H    0.179141
    17  H    0.176372
    18  H    0.166312
    19  O   -0.551900
    20  H    0.377740
    21  O   -0.550817
    22  H    0.386161
    23  C   -0.297969
    24  H    0.163318
    25  H    0.171020
    26  O   -0.545492
    27  H    0.375255
 Sum of Mulliken atomic charges =   0.00000

 Dipole moment (field-independent basis, Debye):
    X=              4.8677    Y=              2.0036    Z=             -0.8159  Tot=              5.3267
 Quadrupole moment (field-independent basis, Debye-Ang):
   XX=            -74.8383   YY=            -63.5288   ZZ=            -78.6805
   XY=             -2.9679   XZ=              0.0285   YZ=              1.2901

 Normal termination of Gaussian 09 at Fri May 17 12:29:18 2024.
