 Gaussian 09, Revision C.01,
 Gaussian 09:  AM64L-G09RevC.01 23-Sep-2011

 ------------------------------------------------
 # mpw1pw91/6-31+G** nmr scrf=(pcm,solvent=water)
 ------------------------------------------------

 99/9=1/99;
 -------
 comment
 -------
 Charge =  0 Multiplicity = 1

                         Standard orientation:
 ---------------------------------------------------------------------
 Center     Atomic      Atomic             Coordinates (Angstroms)
 Number     Number       Type             X           Y           Z
 ---------------------------------------------------------------------
      1          6           0        2.364708    0.221529   -0.121806
      2          6           0        0.978945    0.177434   -0.786205
      3          7           0        0.253986   -0.983418   -0.145082
      4          6           0        1.211829   -1.666765    0.764412
      5          6           0        2.593854   -1.247298    0.260726
      6          6           0       -0.974655   -0.478197    0.513900
      7          6           0       -0.747085    1.037929    0.671195
      8          6           0        0.071066    1.400432   -0.574481
      9          1           0        3.131253    0.625395   -0.789835
     10          1           0        2.343091    0.842408    0.780857
     11          1           0        1.101314   -0.019068   -1.857293
     12          1           0        1.055283   -2.751049    0.745267
     13          1           0        1.077135   -1.330657    1.803716
     14          1           0        2.875591   -1.833628   -0.622566
     15          1           0        3.371282   -1.382246    1.018892
     16          1           0       -1.087836   -0.969343    1.485907
     17          1           0       -0.128952    1.217823    1.556898
     18          1           0       -0.622605    1.499431   -1.423549
     19          8           0        0.831571    2.599315   -0.446296
     20          1           0        0.192294    3.315329   -0.289579
     21          8           0       -1.913770    1.838457    0.857476
     22          1           0       -2.418440    1.823063    0.026005
     23          6           0       -2.198815   -0.848987   -0.335776
     24          1           0       -3.124490   -0.660057    0.216384
     25          1           0       -2.229370   -0.253105   -1.261593
     26          8           0       -2.155220   -2.241895   -0.642875
     27          1           0       -1.213174   -2.383860   -0.872169
 ---------------------------------------------------------------------

 SCF Done:  E(RmPW1PW91) =  -594.196738825     A.U. after   13 cycles

      1  C    Isotropic =   166.2351   Anisotropy =    18.3579

      2  C    Isotropic =   131.2767   Anisotropy =    52.1517

      3  N    Isotropic =   203.3019   Anisotropy =    73.8177

      4  C    Isotropic =   136.4406   Anisotropy =    59.6324

      5  C    Isotropic =   167.3246   Anisotropy =    19.7537

      6  C    Isotropic =   127.0081   Anisotropy =    43.3163

      7  C    Isotropic =   117.9539   Anisotropy =    47.4596

      8  C    Isotropic =   115.7506   Anisotropy =    32.2967

      9  H    Isotropic =    29.8261   Anisotropy =    10.8472

     10  H    Isotropic =    29.7521   Anisotropy =     7.1348

     11  H    Isotropic =    27.9119   Anisotropy =     8.5312

     12  H    Isotropic =    28.2578   Anisotropy =     9.5304

     13  H    Isotropic =    28.9765   Anisotropy =     8.7994

     14  H    Isotropic =    29.7796   Anisotropy =    11.1066

     15  H    Isotropic =    29.6319   Anisotropy =    11.8516

     16  H    Isotropic =    28.7072   Anisotropy =     5.9674

     17  H    Isotropic =    27.4372   Anisotropy =     3.4197

     18  H    Isotropic =    27.4823   Anisotropy =     3.6210

     19  O    Isotropic =   305.2550   Anisotropy =    35.8602

     20  H    Isotropic =    29.5118   Anisotropy =    19.1903

     21  O    Isotropic =   307.5575   Anisotropy =    75.3766

     22  H    Isotropic =    30.9859   Anisotropy =    15.7486

     23  C    Isotropic =   135.1084   Anisotropy =    48.3704

     24  H    Isotropic =    28.0773   Anisotropy =     6.1358

     25  H    Isotropic =    28.3977   Anisotropy =     6.0685

     26  O    Isotropic =   317.9031   Anisotropy =    37.9112

     27  H    Isotropic =    28.4525   Anisotropy =    17.1887

 The electronic state is 1-A.
 Alpha  occ. eigenvalues --  -19.26676 -19.26160 -19.24895 -14.42201 -10.30867
 Alpha  occ. eigenvalues --  -10.30766 -10.29494 -10.28360 -10.28299 -10.27231
 Alpha  occ. eigenvalues --  -10.24752 -10.24679  -1.07756  -1.05889  -1.05363
 Alpha  occ. eigenvalues --   -0.96791  -0.83020  -0.79489  -0.75106  -0.71905
 Alpha  occ. eigenvalues --   -0.67478  -0.62192  -0.61099  -0.57667  -0.55378
 Alpha  occ. eigenvalues --   -0.54210  -0.51785  -0.50789  -0.48972  -0.47555
 Alpha  occ. eigenvalues --   -0.45955  -0.44824  -0.43649  -0.42099  -0.41538
 Alpha  occ. eigenvalues --   -0.40061  -0.38367  -0.37537  -0.37282  -0.35888
 Alpha  occ. eigenvalues --   -0.35105  -0.34567  -0.33539  -0.32289  -0.29519
 Alpha  occ. eigenvalues --   -0.28630  -0.23924
 Alpha virt. eigenvalues --    0.00655   0.00987   0.01732   0.02022   0.03663
 Alpha virt. eigenvalues --    0.04326   0.04695   0.04832   0.05445   0.07077
 Alpha virt. eigenvalues --    0.07541   0.08403   0.08785   0.09383   0.09806

 Mulliken atomic charges:
              1
     1  C   -0.375378
     2  C   -0.096433
     3  N   -0.204963
     4  C   -0.206596
     5  C   -0.343743
     6  C   -0.012984
     7  C   -0.259339
     8  C   -0.040140
     9  H    0.178116
    10  H    0.182980
    11  H    0.177025
    12  H    0.168461
    13  H    0.165091
    14  H    0.179453
    15  H    0.179109
    16  H    0.180148
    17  H    0.189280
    18  H    0.168479
    19  O   -0.525983
    20  H    0.385135
    21  O   -0.493590
    22  H    0.369877
    23  C   -0.138738
    24  H    0.176132
    25  H    0.150452
    26  O   -0.537414
    27  H    0.385562
 Sum of Mulliken atomic charges =   0.00000

 Dipole moment (field-independent basis, Debye):
    X=              1.6071    Y=              1.3810    Z=             -0.3627  Tot=              2.1498
 Quadrupole moment (field-independent basis, Debye-Ang):
   XX=            -76.9393   YY=            -79.8342   ZZ=            -73.0826
   XY=            -12.9802   XZ=              3.5664   YZ=             -5.6903

 Normal termination of Gaussian 09 at Fri May 17 12:37:34 2024.
