 Gaussian 09, Revision C.01,
 Gaussian 09:  AM64L-G09RevC.01 23-Sep-2011

 ------------------------------------------------
 # mpw1pw91/6-31+G** nmr scrf=(pcm,solvent=water)
 ------------------------------------------------

 99/9=1/99;
 -------
 comment
 -------
 Charge =  0 Multiplicity = 1

                         Standard orientation:
 ---------------------------------------------------------------------
 Center     Atomic      Atomic             Coordinates (Angstroms)
 Number     Number       Type             X           Y           Z
 ---------------------------------------------------------------------
      1          6           0        2.597953    0.025318   -0.441097
      2          6           0        1.160200    0.438108   -0.820060
      3          7           0        0.307634   -0.785880   -0.635973
      4          6           0        1.171951   -1.864179   -0.103279
      5          6           0        2.403528   -1.175000    0.498349
      6          6           0       -0.830894   -0.424641    0.237511
      7          6           0       -0.958700    1.105985    0.114597
      8          6           0        0.509052    1.548931    0.025482
      9          1           0        3.137789   -0.287647   -1.342194
     10          1           0        3.157907    0.845683    0.015585
     11          1           0        1.117833    0.760423   -1.866647
     12          1           0        1.477621   -2.531816   -0.920292
     13          1           0        0.617517   -2.472886    0.618102
     14          1           0        3.277608   -1.833338    0.542559
     15          1           0        2.185962   -0.830313    1.514940
     16          1           0       -0.609230   -0.643371    1.294724
     17          1           0       -1.454803    1.541957    0.989776
     18          1           0        0.599279    2.531243   -0.454602
     19          8           0        1.094494    1.581974    1.331208
     20          1           0        0.637369    2.279243    1.831119
     21          8           0       -1.616268    1.531696   -1.084096
     22          1           0       -2.552943    1.287591   -0.996801
     23          6           0       -2.088358   -1.192890   -0.147452
     24          1           0       -2.347709   -0.983646   -1.193548
     25          1           0       -1.902992   -2.272718   -0.059162
     26          8           0       -3.146241   -0.785513    0.730381
     27          1           0       -3.938901   -1.284285    0.473989
 ---------------------------------------------------------------------

 SCF Done:  E(RmPW1PW91) =  -594.195189375     A.U. after   13 cycles

      1  C    Isotropic =   167.9701   Anisotropy =    23.7729

      2  C    Isotropic =   127.5230   Anisotropy =    58.5124

      3  N    Isotropic =   195.1628   Anisotropy =    76.3852

      4  C    Isotropic =   140.7991   Anisotropy =    56.7045

      5  C    Isotropic =   168.2873   Anisotropy =    24.0938

      6  C    Isotropic =   125.0734   Anisotropy =    56.0607

      7  C    Isotropic =   113.7110   Anisotropy =    35.1423

      8  C    Isotropic =   116.5826   Anisotropy =    27.7584

      9  H    Isotropic =    29.8850   Anisotropy =    12.4158

     10  H    Isotropic =    29.4597   Anisotropy =     9.4569

     11  H    Isotropic =    27.7260   Anisotropy =     8.3252

     12  H    Isotropic =    28.7401   Anisotropy =    11.9050

     13  H    Isotropic =    28.8124   Anisotropy =     8.4929

     14  H    Isotropic =    30.1378   Anisotropy =    12.7668

     15  H    Isotropic =    29.7592   Anisotropy =     7.6998

     16  H    Isotropic =    28.5367   Anisotropy =     4.6056

     17  H    Isotropic =    27.4020   Anisotropy =     4.7566

     18  H    Isotropic =    27.4983   Anisotropy =     6.4409

     19  O    Isotropic =   293.9946   Anisotropy =    86.9955

     20  H    Isotropic =    30.4453   Anisotropy =    20.3462

     21  O    Isotropic =   304.1173   Anisotropy =    62.2383

     22  H    Isotropic =    29.8359   Anisotropy =    19.0667

     23  C    Isotropic =   132.1144   Anisotropy =    72.9869

     24  H    Isotropic =    27.8060   Anisotropy =     2.6897

     25  H    Isotropic =    27.7315   Anisotropy =     4.9817

     26  O    Isotropic =   316.9989   Anisotropy =    92.7395

     27  H    Isotropic =    30.3508   Anisotropy =    21.7026

 The electronic state is 1-A.
 Alpha  occ. eigenvalues --  -19.25841 -19.25823 -19.25742 -14.40924 -10.30393
 Alpha  occ. eigenvalues --  -10.30316 -10.29523 -10.27809 -10.27563 -10.26594
 Alpha  occ. eigenvalues --  -10.24313 -10.23939  -1.07105  -1.05943  -1.05401
 Alpha  occ. eigenvalues --   -0.95888  -0.82254  -0.79109  -0.75008  -0.71835
 Alpha  occ. eigenvalues --   -0.66375  -0.61328  -0.59588  -0.57640  -0.55246
 Alpha  occ. eigenvalues --   -0.53159  -0.51977  -0.50778  -0.49004  -0.48030
 Alpha  occ. eigenvalues --   -0.46999  -0.43413  -0.42140  -0.41995  -0.40621
 Alpha  occ. eigenvalues --   -0.39472  -0.38150  -0.37486  -0.36284  -0.35154
 Alpha  occ. eigenvalues --   -0.34864  -0.34352  -0.32567  -0.30581  -0.30116
 Alpha  occ. eigenvalues --   -0.28919  -0.22995
 Alpha virt. eigenvalues --    0.00441   0.00867   0.01984   0.02409   0.03663
 Alpha virt. eigenvalues --    0.03919   0.04708   0.04974   0.05588   0.06310
 Alpha virt. eigenvalues --    0.07569   0.08101   0.08662   0.08899   0.09900

 Mulliken atomic charges:
              1
     1  C   -0.521212
     2  C    0.101184
     3  N   -0.091090
     4  C   -0.203961
     5  C   -0.277583
     6  C   -0.389601
     7  C   -0.105777
     8  C    0.049243
     9  H    0.173748
    10  H    0.179652
    11  H    0.166299
    12  H    0.160669
    13  H    0.160656
    14  H    0.166611
    15  H    0.181196
    16  H    0.173335
    17  H    0.168971
    18  H    0.168061
    19  O   -0.564674
    20  H    0.388055
    21  O   -0.568273
    22  H    0.386890
    23  C   -0.047181
    24  H    0.167573
    25  H    0.161787
    26  O   -0.580731
    27  H    0.396154
 Sum of Mulliken atomic charges =   0.00000

 Dipole moment (field-independent basis, Debye):
    X=             -1.6378    Y=             -0.7715    Z=              0.8511  Tot=              2.0005
 Quadrupole moment (field-independent basis, Debye-Ang):
   XX=            -63.2489   YY=            -66.7028   ZZ=            -77.6943
   XY=              3.3743   XZ=              0.1489   YZ=              3.8079

 Normal termination of Gaussian 09 at Fri May 17 12:31:47 2024.
