 Gaussian 09, Revision C.01,
 Gaussian 09:  AM64L-G09RevC.01 23-Sep-2011

 ------------------------------------------------
 # mpw1pw91/6-31+G** nmr scrf=(pcm,solvent=water)
 ------------------------------------------------

 99/9=1/99;
 -------
 comment
 -------
 Charge =  0 Multiplicity = 1

                         Standard orientation:
 ---------------------------------------------------------------------
 Center     Atomic      Atomic             Coordinates (Angstroms)
 Number     Number       Type             X           Y           Z
 ---------------------------------------------------------------------
      1          6           0       -2.477402    0.255218   -0.463934
      2          6           0       -1.091765   -0.369131   -0.716467
      3          7           0       -0.081669    0.683200   -0.351829
      4          6           0       -0.799511    1.753952    0.361784
      5          6           0       -2.179749    1.757666   -0.294809
      6          6           0        1.024570    0.038188    0.389998
      7          6           0        0.838525   -1.479981    0.163752
      8          6           0       -0.696226   -1.618143    0.085912
      9          1           0       -3.174444    0.048973   -1.281303
     10          1           0       -2.911825   -0.145304    0.456175
     11          1           0       -0.977958   -0.622191   -1.779192
     12          1           0       -0.278653    2.713250    0.264906
     13          1           0       -0.888713    1.535194    1.440630
     14          1           0       -2.127760    2.251674   -1.272375
     15          1           0       -2.930565    2.277913    0.308216
     16          1           0        0.909068    0.223936    1.469601
     17          1           0        1.248754   -2.059815    0.995265
     18          1           0       -0.989870   -2.550379   -0.413157
     19          8           0       -1.262014   -1.544325    1.397977
     20          1           0       -0.929213   -2.310620    1.895548
     21          8           0        1.491687   -1.994473   -1.002002
     22          1           0        1.181877   -1.499159   -1.778692
     23          6           0        2.400998    0.555410   -0.016956
     24          1           0        3.177520   -0.005313    0.514460
     25          1           0        2.556025    0.416462   -1.094166
     26          8           0        2.595246    1.930280    0.340776
     27          1           0        1.991462    2.452054   -0.212803
 ---------------------------------------------------------------------

 SCF Done:  E(RmPW1PW91) =  -594.195129811     A.U. after   13 cycles

      1  C    Isotropic =   172.5388   Anisotropy =    20.8540

      2  C    Isotropic =   126.9638   Anisotropy =    61.5066

      3  N    Isotropic =   187.6482   Anisotropy =    95.3290

      4  C    Isotropic =   136.0623   Anisotropy =    56.1317

      5  C    Isotropic =   163.3378   Anisotropy =    27.1683

      6  C    Isotropic =   125.1004   Anisotropy =    35.0570

      7  C    Isotropic =   109.0126   Anisotropy =    30.6649

      8  C    Isotropic =   117.3387   Anisotropy =    32.6055

      9  H    Isotropic =    29.9119   Anisotropy =    11.7224

     10  H    Isotropic =    29.3941   Anisotropy =     7.7005

     11  H    Isotropic =    27.6658   Anisotropy =     7.7010

     12  H    Isotropic =    28.4763   Anisotropy =     8.6047

     13  H    Isotropic =    29.0092   Anisotropy =     7.5815

     14  H    Isotropic =    29.3696   Anisotropy =    10.5620

     15  H    Isotropic =    29.4983   Anisotropy =    11.6370

     16  H    Isotropic =    28.5249   Anisotropy =     5.1857

     17  H    Isotropic =    27.4305   Anisotropy =     4.8278

     18  H    Isotropic =    27.7025   Anisotropy =     6.7677

     19  O    Isotropic =   288.6741   Anisotropy =    79.6357

     20  H    Isotropic =    30.2741   Anisotropy =    19.9348

     21  O    Isotropic =   297.0666   Anisotropy =    32.3532

     22  H    Isotropic =    30.4871   Anisotropy =    13.3837

     23  C    Isotropic =   127.7746   Anisotropy =    48.0149

     24  H    Isotropic =    27.8027   Anisotropy =     6.3310

     25  H    Isotropic =    27.8326   Anisotropy =     5.9808

     26  O    Isotropic =   311.0964   Anisotropy =    46.0962

     27  H    Isotropic =    30.3291   Anisotropy =    15.2076

 The electronic state is 1-A.
 Alpha  occ. eigenvalues --  -19.26340 -19.26031 -19.25496 -14.41281 -10.30969
 Alpha  occ. eigenvalues --  -10.30480 -10.29399 -10.28091 -10.27888 -10.26913
 Alpha  occ. eigenvalues --  -10.24575 -10.24498  -1.07401  -1.05937  -1.05513
 Alpha  occ. eigenvalues --   -0.96232  -0.82752  -0.79177  -0.75364  -0.72016
 Alpha  occ. eigenvalues --   -0.66700  -0.62117  -0.60831  -0.57387  -0.55146
 Alpha  occ. eigenvalues --   -0.53823  -0.52652  -0.51387  -0.48739  -0.46520
 Alpha  occ. eigenvalues --   -0.45267  -0.43999  -0.43025  -0.42682  -0.41564
 Alpha  occ. eigenvalues --   -0.38769  -0.38498  -0.38195  -0.37512  -0.35670
 Alpha  occ. eigenvalues --   -0.34731  -0.34140  -0.32637  -0.32316  -0.30531
 Alpha  occ. eigenvalues --   -0.28066  -0.23307
 Alpha virt. eigenvalues --    0.00523   0.01461   0.01867   0.02145   0.03441
 Alpha virt. eigenvalues --    0.04320   0.04564   0.05155   0.05357   0.06808
 Alpha virt. eigenvalues --    0.07665   0.08219   0.08516   0.09047   0.09520

 Mulliken atomic charges:
              1
     1  C   -0.516973
     2  C    0.057373
     3  N   -0.259805
     4  C   -0.201615
     5  C   -0.407292
     6  C    0.226298
     7  C   -0.275110
     8  C    0.016806
     9  H    0.174019
    10  H    0.189807
    11  H    0.166469
    12  H    0.155994
    13  H    0.152151
    14  H    0.177511
    15  H    0.175366
    16  H    0.169531
    17  H    0.178168
    18  H    0.175752
    19  O   -0.575301
    20  H    0.388606
    21  O   -0.510938
    22  H    0.379271
    23  C   -0.188389
    24  H    0.166512
    25  H    0.158263
    26  O   -0.547113
    27  H    0.374638
 Sum of Mulliken atomic charges =   0.00000

 Dipole moment (field-independent basis, Debye):
    X=             -2.7636    Y=             -1.3290    Z=             -0.8922  Tot=              3.1937
 Quadrupole moment (field-independent basis, Debye-Ang):
   XX=            -83.0746   YY=            -71.9780   ZZ=            -69.8746
   XY=             -3.2941   XZ=              0.9950   YZ=             -6.3909

 Normal termination of Gaussian 09 at Fri May 17 12:11:16 2024.
