 Gaussian 09, Revision C.01,
 Gaussian 09:  AM64L-G09RevC.01 23-Sep-2011

 ------------------------------------------------
 # mpw1pw91/6-31+G** nmr scrf=(pcm,solvent=water)
 ------------------------------------------------

 99/9=1/99;
 -------
 comment
 -------
 Charge =  0 Multiplicity = 1

                         Standard orientation:
 ---------------------------------------------------------------------
 Center     Atomic      Atomic             Coordinates (Angstroms)
 Number     Number       Type             X           Y           Z
 ---------------------------------------------------------------------
      1          6           0        2.591239    0.034103   -0.449557
      2          6           0        1.151839    0.452796   -0.814252
      3          7           0        0.302576   -0.775730   -0.640790
      4          6           0        1.169688   -1.857204   -0.118999
      5          6           0        2.398900   -1.167958    0.487354
      6          6           0       -0.841210   -0.429834    0.234834
      7          6           0       -0.970886    1.101370    0.123094
      8          6           0        0.497903    1.549766    0.056653
      9          1           0        3.171166    0.848179   -0.001222
     10          1           0        3.121638   -0.277440   -1.356470
     11          1           0        1.106593    0.790223   -1.857556
     12          1           0        1.476697   -2.517041   -0.941702
     13          1           0        0.617663   -2.472660    0.598379
     14          1           0        3.274724   -1.823642    0.532408
     15          1           0        2.176547   -0.823117    1.502807
     16          1           0       -0.619164   -0.657138    1.289858
     17          1           0       -1.472068    1.530352    0.993303
     18          1           0        0.594314    2.542946   -0.399081
     19          8           0        0.967792    1.580620    1.410020
     20          1           0        1.907284    1.826147    1.389794
     21          8           0       -1.728196    1.547891   -1.005733
     22          1           0       -1.363063    1.137151   -1.807366
     23          6           0       -2.103991   -1.201766   -0.148779
     24          1           0       -2.375535   -0.994441   -1.191220
     25          1           0       -1.916319   -2.276851   -0.060404
     26          8           0       -3.200056   -0.913275    0.727544
     27          1           0       -3.495728   -0.012078    0.517264
 ---------------------------------------------------------------------

 SCF Done:  E(RmPW1PW91) =  -594.195000477     A.U. after   13 cycles

      1  C    Isotropic =   167.7131   Anisotropy =    25.3199

      2  C    Isotropic =   127.6018   Anisotropy =    59.6620

      3  N    Isotropic =   197.2931   Anisotropy =    78.8250

      4  C    Isotropic =   141.0782   Anisotropy =    56.5968

      5  C    Isotropic =   168.7369   Anisotropy =    23.2714

      6  C    Isotropic =   124.2656   Anisotropy =    56.2224

      7  C    Isotropic =   115.4683   Anisotropy =    38.1896

      8  C    Isotropic =   115.0808   Anisotropy =    26.9952

      9  H    Isotropic =    29.9540   Anisotropy =     9.6866

     10  H    Isotropic =    29.7235   Anisotropy =    12.4274

     11  H    Isotropic =    27.8896   Anisotropy =     8.2264

     12  H    Isotropic =    28.7499   Anisotropy =    11.8982

     13  H    Isotropic =    28.8074   Anisotropy =     8.6202

     14  H    Isotropic =    30.1033   Anisotropy =    12.8696

     15  H    Isotropic =    29.8332   Anisotropy =     7.7857

     16  H    Isotropic =    28.5149   Anisotropy =     4.6066

     17  H    Isotropic =    27.3813   Anisotropy =     4.5439

     18  H    Isotropic =    27.6036   Anisotropy =     6.8733

     19  O    Isotropic =   298.1320   Anisotropy =    52.4072

     20  H    Isotropic =    29.9368   Anisotropy =    18.0968

     21  O    Isotropic =   303.9932   Anisotropy =    27.8701

     22  H    Isotropic =    30.2157   Anisotropy =    14.2969

     23  C    Isotropic =   131.3734   Anisotropy =    73.2981

     24  H    Isotropic =    27.7397   Anisotropy =     2.9650

     25  H    Isotropic =    28.0303   Anisotropy =     4.5346

     26  O    Isotropic =   311.3429   Anisotropy =    35.3204

     27  H    Isotropic =    30.1918   Anisotropy =    15.5835

 The electronic state is 1-A.
 Alpha  occ. eigenvalues --  -19.26420 -19.25994 -19.25658 -14.41388 -10.30788
 Alpha  occ. eigenvalues --  -10.30538 -10.29428 -10.28058 -10.27904 -10.26916
 Alpha  occ. eigenvalues --  -10.25160 -10.24378  -1.07459  -1.06026  -1.05508
 Alpha  occ. eigenvalues --   -0.96241  -0.82640  -0.79247  -0.75200  -0.72442
 Alpha  occ. eigenvalues --   -0.66997  -0.62404  -0.59817  -0.58293  -0.55277
 Alpha  occ. eigenvalues --   -0.53489  -0.52370  -0.50590  -0.48933  -0.47451
 Alpha  occ. eigenvalues --   -0.45826  -0.44548  -0.43620  -0.42726  -0.40427
 Alpha  occ. eigenvalues --   -0.39289  -0.38930  -0.37472  -0.36632  -0.35945
 Alpha  occ. eigenvalues --   -0.35284  -0.34746  -0.33630  -0.30609  -0.29773
 Alpha  occ. eigenvalues --   -0.29624  -0.23275
 Alpha virt. eigenvalues --    0.00506   0.00758   0.01866   0.02389   0.03903
 Alpha virt. eigenvalues --    0.03984   0.04488   0.05044   0.05513   0.06453
 Alpha virt. eigenvalues --    0.07450   0.08120   0.08437   0.09050   0.09496

 Mulliken atomic charges:
              1
     1  C   -0.519471
     2  C    0.052200
     3  N   -0.147383
     4  C   -0.239220
     5  C   -0.275335
     6  C   -0.191930
     7  C   -0.315340
     8  C    0.138888
     9  H    0.160993
    10  H    0.185052
    11  H    0.168971
    12  H    0.164003
    13  H    0.163723
    14  H    0.171616
    15  H    0.181159
    16  H    0.180964
    17  H    0.189052
    18  H    0.173344
    19  O   -0.551122
    20  H    0.377624
    21  O   -0.518691
    22  H    0.383602
    23  C   -0.104305
    24  H    0.162901
    25  H    0.164596
    26  O   -0.537350
    27  H    0.381457
 Sum of Mulliken atomic charges =   0.00000

 Dipole moment (field-independent basis, Debye):
    X=              4.8945    Y=              0.6968    Z=             -1.8709  Tot=              5.2860
 Quadrupole moment (field-independent basis, Debye-Ang):
   XX=            -74.0700   YY=            -74.1726   ZZ=            -75.5877
   XY=             -0.4326   XZ=              3.1317   YZ=             -0.1393

 Normal termination of Gaussian 09 at Fri May 17 12:53:41 2024.
