 Gaussian 09, Revision C.01,
 Gaussian 09:  AM64L-G09RevC.01 23-Sep-2011

 ------------------------------------------------
 # mpw1pw91/6-31+G** nmr scrf=(pcm,solvent=water)
 ------------------------------------------------

 99/9=1/99;
 -------
 comment
 -------
 Charge =  0 Multiplicity = 1

                         Standard orientation:
 ---------------------------------------------------------------------
 Center     Atomic      Atomic             Coordinates (Angstroms)
 Number     Number       Type             X           Y           Z
 ---------------------------------------------------------------------
      1          6           0        2.368033    0.162995   -0.149194
      2          6           0        0.973560    0.141110   -0.797057
      3          7           0        0.230072   -0.993993   -0.135851
      4          6           0        1.173588   -1.673699    0.790599
      5          6           0        2.562374   -1.301299    0.269094
      6          6           0       -0.991955   -0.451446    0.509990
      7          6           0       -0.729487    1.051747    0.661273
      8          6           0        0.089080    1.391982   -0.590387
      9          1           0        3.137885    0.529375   -0.834560
     10          1           0        2.382637    0.800496    0.744284
     11          1           0        1.080830   -0.066101   -1.867742
     12          1           0        0.992606   -2.754270    0.802819
     13          1           0        1.051520   -1.304957    1.820487
     14          1           0        2.823316   -1.914666   -0.601993
     15          1           0        3.341599   -1.437284    1.025122
     16          1           0       -1.127217   -0.939340    1.480639
     17          1           0       -0.090213    1.217470    1.542701
     18          1           0       -0.596325    1.508467   -1.435656
     19          8           0        0.780615    2.636532   -0.513542
     20          1           0        1.354601    2.606589    0.271319
     21          8           0       -1.938445    1.795470    0.790538
     22          1           0       -1.688375    2.735459    0.779901
     23          6           0       -2.215982   -0.790682   -0.352482
     24          1           0       -3.142757   -0.559973    0.180377
     25          1           0       -2.209898   -0.211279   -1.287642
     26          8           0       -2.218780   -2.190376   -0.634346
     27          1           0       -1.283098   -2.369294   -0.861320
 ---------------------------------------------------------------------

 SCF Done:  E(RmPW1PW91) =  -594.197603925     A.U. after   13 cycles

      1  C    Isotropic =   166.4863   Anisotropy =    17.6046

      2  C    Isotropic =   131.1092   Anisotropy =    54.1988

      3  N    Isotropic =   202.9004   Anisotropy =    73.9673

      4  C    Isotropic =   136.4531   Anisotropy =    59.4707

      5  C    Isotropic =   167.2686   Anisotropy =    19.8200

      6  C    Isotropic =   127.7779   Anisotropy =    40.5654

      7  C    Isotropic =   119.2150   Anisotropy =    45.1342

      8  C    Isotropic =   115.4666   Anisotropy =    36.4487

      9  H    Isotropic =    29.8602   Anisotropy =    11.0458

     10  H    Isotropic =    30.2554   Anisotropy =     6.9886

     11  H    Isotropic =    27.9297   Anisotropy =     8.2663

     12  H    Isotropic =    28.2541   Anisotropy =     9.5631

     13  H    Isotropic =    28.9827   Anisotropy =     8.6810

     14  H    Isotropic =    29.7158   Anisotropy =    11.0961

     15  H    Isotropic =    29.6061   Anisotropy =    11.8301

     16  H    Isotropic =    28.6640   Anisotropy =     6.2751

     17  H    Isotropic =    27.5090   Anisotropy =     3.9752

     18  H    Isotropic =    27.4203   Anisotropy =     3.1002

     19  O    Isotropic =   305.0018   Anisotropy =    71.3299

     20  H    Isotropic =    30.5947   Anisotropy =    15.3488

     21  O    Isotropic =   310.4065   Anisotropy =    36.2764

     22  H    Isotropic =    29.7072   Anisotropy =    18.5240

     23  C    Isotropic =   134.0791   Anisotropy =    50.0031

     24  H    Isotropic =    27.9901   Anisotropy =     6.0780

     25  H    Isotropic =    28.2321   Anisotropy =     5.9881

     26  O    Isotropic =   317.3280   Anisotropy =    34.1500

     27  H    Isotropic =    28.4754   Anisotropy =    16.8913

 The electronic state is 1-A.
 Alpha  occ. eigenvalues --  -19.26571 -19.26241 -19.24677 -14.42209 -10.30866
 Alpha  occ. eigenvalues --  -10.30706 -10.29098 -10.28454 -10.28265 -10.27306
 Alpha  occ. eigenvalues --  -10.25262 -10.24983  -1.07737  -1.05908  -1.05140
 Alpha  occ. eigenvalues --   -0.96851  -0.83272  -0.79326  -0.75238  -0.71842
 Alpha  occ. eigenvalues --   -0.67553  -0.62009  -0.60959  -0.58114  -0.56366
 Alpha  occ. eigenvalues --   -0.53937  -0.51089  -0.50031  -0.48652  -0.47547
 Alpha  occ. eigenvalues --   -0.46765  -0.44821  -0.44000  -0.43230  -0.40272
 Alpha  occ. eigenvalues --   -0.39925  -0.38571  -0.38012  -0.37345  -0.35816
 Alpha  occ. eigenvalues --   -0.34871  -0.34676  -0.33685  -0.32462  -0.29502
 Alpha  occ. eigenvalues --   -0.28372  -0.24031
 Alpha virt. eigenvalues --    0.00754   0.00958   0.01754   0.01989   0.03806
 Alpha virt. eigenvalues --    0.04407   0.04675   0.04758   0.05335   0.07113
 Alpha virt. eigenvalues --    0.08226   0.08318   0.08726   0.08876   0.09757

 Mulliken atomic charges:
              1
     1  C   -0.392046
     2  C   -0.080017
     3  N   -0.207686
     4  C   -0.198836
     5  C   -0.347942
     6  C   -0.049801
     7  C   -0.180783
     8  C   -0.147872
     9  H    0.187631
    10  H    0.160230
    11  H    0.177271
    12  H    0.169695
    13  H    0.166507
    14  H    0.182739
    15  H    0.181030
    16  H    0.181112
    17  H    0.172285
    18  H    0.185952
    19  O   -0.491524
    20  H    0.363236
    21  O   -0.516141
    22  H    0.384570
    23  C   -0.071122
    24  H    0.171051
    25  H    0.149304
    26  O   -0.531789
    27  H    0.382946
 Sum of Mulliken atomic charges =   0.00000

 Dipole moment (field-independent basis, Debye):
    X=              5.2923    Y=              1.6099    Z=              2.2571  Tot=              5.9745
 Quadrupole moment (field-independent basis, Debye-Ang):
   XX=            -79.6036   YY=            -79.5930   ZZ=            -71.7264
   XY=             -7.9708   XZ=              1.7876   YZ=              2.4537

 Normal termination of Gaussian 09 at Fri May 17 12:25:14 2024.
