 Gaussian 09, Revision C.01,
 Gaussian 09:  AM64L-G09RevC.01 23-Sep-2011

 ------------------------------------------------
 # mpw1pw91/6-31+G** nmr scrf=(pcm,solvent=water)
 ------------------------------------------------

 99/9=1/99;
 -------
 comment
 -------
 Charge =  0 Multiplicity = 1

                         Standard orientation:
 ---------------------------------------------------------------------
 Center     Atomic      Atomic             Coordinates (Angstroms)
 Number     Number       Type             X           Y           Z
 ---------------------------------------------------------------------
      1          6           0       -2.465726    0.296100   -0.436956
      2          6           0       -1.099059   -0.356398   -0.712565
      3          7           0       -0.064093    0.675258   -0.365044
      4          6           0       -0.751551    1.781779    0.323815
      5          6           0       -2.139349    1.796286   -0.316112
      6          6           0        1.020340    0.017593    0.394492
      7          6           0        0.813063   -1.496154    0.164086
      8          6           0       -0.713607   -1.615249    0.093664
      9          1           0       -3.194626    0.076777   -1.222312
     10          1           0       -2.880889   -0.060655    0.511825
     11          1           0       -1.006750   -0.612999   -1.775499
     12          1           0       -0.213746    2.727749    0.194274
     13          1           0       -0.832878    1.596350    1.409466
     14          1           0       -2.090413    2.259842   -1.308622
     15          1           0       -2.872095    2.348581    0.280552
     16          1           0        0.893365    0.202136    1.473930
     17          1           0        1.227696   -2.090266    0.986395
     18          1           0       -1.019688   -2.541123   -0.408016
     19          8           0       -1.180582   -1.598197    1.445651
     20          1           0       -2.141921   -1.733564    1.422647
     21          8           0        1.324470   -1.962079   -1.091083
     22          1           0        2.293508   -1.969618   -1.029502
     23          6           0        2.410132    0.517926    0.010187
     24          1           0        3.169466   -0.041450    0.568594
     25          1           0        2.586968    0.360838   -1.061500
     26          8           0        2.611693    1.895778    0.349114
     27          1           0        2.040535    2.415286   -0.240050
 ---------------------------------------------------------------------

 SCF Done:  E(RmPW1PW91) =  -594.194669041     A.U. after   13 cycles

      1  C    Isotropic =   171.7609   Anisotropy =    19.8464

      2  C    Isotropic =   124.9558   Anisotropy =    58.5646

      3  N    Isotropic =   187.3996   Anisotropy =    93.5075

      4  C    Isotropic =   136.0777   Anisotropy =    55.5980

      5  C    Isotropic =   163.1017   Anisotropy =    27.4536

      6  C    Isotropic =   123.8129   Anisotropy =    34.7438

      7  C    Isotropic =   111.2614   Anisotropy =    25.6982

      8  C    Isotropic =   117.6996   Anisotropy =    32.5244

      9  H    Isotropic =    29.8902   Anisotropy =    11.7634

     10  H    Isotropic =    30.0526   Anisotropy =     7.4867

     11  H    Isotropic =    27.5486   Anisotropy =     7.4697

     12  H    Isotropic =    28.4637   Anisotropy =     8.6095

     13  H    Isotropic =    29.0259   Anisotropy =     7.6169

     14  H    Isotropic =    29.3205   Anisotropy =    10.5514

     15  H    Isotropic =    29.4427   Anisotropy =    11.6443

     16  H    Isotropic =    28.6487   Anisotropy =     5.2195

     17  H    Isotropic =    27.0210   Anisotropy =     5.1750

     18  H    Isotropic =    27.6762   Anisotropy =     6.9925

     19  O    Isotropic =   293.8375   Anisotropy =    45.2848

     20  H    Isotropic =    29.9781   Anisotropy =    19.0025

     21  O    Isotropic =   300.5363   Anisotropy =    57.5997

     22  H    Isotropic =    30.4040   Anisotropy =    18.7297

     23  C    Isotropic =   128.6541   Anisotropy =    47.2837

     24  H    Isotropic =    27.8505   Anisotropy =     6.3771

     25  H    Isotropic =    27.7861   Anisotropy =     6.0810

     26  O    Isotropic =   312.3930   Anisotropy =    47.3522

     27  H    Isotropic =    30.3019   Anisotropy =    15.3657

 The electronic state is 1-A.
 Alpha  occ. eigenvalues --  -19.26148 -19.26032 -19.25622 -14.41069 -10.30898
 Alpha  occ. eigenvalues --  -10.30499 -10.29577 -10.27790 -10.27642 -10.26868
 Alpha  occ. eigenvalues --  -10.24829 -10.24662  -1.07344  -1.05929  -1.05623
 Alpha  occ. eigenvalues --   -0.96090  -0.82923  -0.79140  -0.75324  -0.72448
 Alpha  occ. eigenvalues --   -0.66397  -0.60697  -0.60336  -0.57986  -0.56782
 Alpha  occ. eigenvalues --   -0.53521  -0.52520  -0.50062  -0.49310  -0.46506
 Alpha  occ. eigenvalues --   -0.45760  -0.44805  -0.43983  -0.42841  -0.40129
 Alpha  occ. eigenvalues --   -0.39516  -0.39036  -0.37444  -0.35895  -0.35696
 Alpha  occ. eigenvalues --   -0.34954  -0.34318  -0.33617  -0.30852  -0.30636
 Alpha  occ. eigenvalues --   -0.29092  -0.22909
 Alpha virt. eigenvalues --    0.00710   0.01046   0.01724   0.02455   0.03125
 Alpha virt. eigenvalues --    0.04257   0.04926   0.05254   0.05473   0.06862
 Alpha virt. eigenvalues --    0.07513   0.07818   0.08712   0.08849   0.10218

 Mulliken atomic charges:
              1
     1  C   -0.434315
     2  C    0.007381
     3  N   -0.205225
     4  C   -0.192009
     5  C   -0.406477
     6  C    0.218613
     7  C   -0.189656
     8  C    0.024295
     9  H    0.178546
    10  H    0.148817
    11  H    0.168571
    12  H    0.154960
    13  H    0.151021
    14  H    0.179169
    15  H    0.176179
    16  H    0.166340
    17  H    0.178518
    18  H    0.171722
    19  O   -0.577628
    20  H    0.383105
    21  O   -0.562711
    22  H    0.386925
    23  C   -0.292317
    24  H    0.168491
    25  H    0.169053
    26  O   -0.547497
    27  H    0.376129
 Sum of Mulliken atomic charges =   0.00000

 Dipole moment (field-independent basis, Debye):
    X=             -2.5670    Y=             -0.9961    Z=             -0.5312  Tot=              2.8043
 Quadrupole moment (field-independent basis, Debye-Ang):
   XX=            -65.4093   YY=            -73.5387   ZZ=            -78.9787
   XY=             -6.0859   XZ=             -2.6725   YZ=             -3.2271

 Normal termination of Gaussian 09 at Fri May 17 12:26:30 2024.
