 Gaussian 09, Revision C.01,
 Gaussian 09:  AM64L-G09RevC.01 23-Sep-2011

 ------------------------------------------------
 # mpw1pw91/6-31+G** nmr scrf=(pcm,solvent=water)
 ------------------------------------------------

 99/9=1/99;
 -------
 comment
 -------
 Charge =  0 Multiplicity = 1

                         Standard orientation:
 ---------------------------------------------------------------------
 Center     Atomic      Atomic             Coordinates (Angstroms)
 Number     Number       Type             X           Y           Z
 ---------------------------------------------------------------------
      1          6           0       -2.459787    0.310309   -0.463548
      2          6           0       -1.092368   -0.350806   -0.716353
      3          7           0       -0.057110    0.679328   -0.366211
      4          6           0       -0.745184    1.776032    0.337390
      5          6           0       -2.126712    1.807084   -0.314932
      6          6           0        1.031549    0.015711    0.384766
      7          6           0        0.808712   -1.492614    0.178231
      8          6           0       -0.722692   -1.601263    0.109354
      9          1           0       -3.171261    0.107615   -1.269094
     10          1           0       -2.900926   -0.056932    0.469339
     11          1           0       -0.985077   -0.620363   -1.774317
     12          1           0       -0.201892    2.721508    0.228922
     13          1           0       -0.837124    1.571543    1.418782
     14          1           0       -2.066120    2.286511   -1.299184
     15          1           0       -2.862647    2.353204    0.283503
     16          1           0        0.918315    0.213063    1.462674
     17          1           0        1.217635   -2.079743    1.009260
     18          1           0       -1.039191   -2.532018   -0.379390
     19          8           0       -1.195222   -1.560037    1.459365
     20          1           0       -2.154907   -1.707311    1.437600
     21          8           0        1.402010   -1.898901   -1.059460
     22          1           0        1.222057   -2.848447   -1.162253
     23          6           0        2.421325    0.503559   -0.017234
     24          1           0        3.183701   -0.071417    0.519443
     25          1           0        2.580358    0.364050   -1.092696
     26          8           0        2.637219    1.874873    0.343588
     27          1           0        2.055735    2.407881   -0.223094
 ---------------------------------------------------------------------

 SCF Done:  E(RmPW1PW91) =  -594.195693513     A.U. after   13 cycles

      1  C    Isotropic =   171.8348   Anisotropy =    19.9645

      2  C    Isotropic =   125.2702   Anisotropy =    58.6747

      3  N    Isotropic =   185.9691   Anisotropy =    94.2327

      4  C    Isotropic =   135.9213   Anisotropy =    55.8563

      5  C    Isotropic =   163.1780   Anisotropy =    27.5450

      6  C    Isotropic =   124.7722   Anisotropy =    35.5442

      7  C    Isotropic =   111.7872   Anisotropy =    28.6138

      8  C    Isotropic =   115.9361   Anisotropy =    32.4478

      9  H    Isotropic =    29.8734   Anisotropy =    11.7641

     10  H    Isotropic =    30.0665   Anisotropy =     7.5342

     11  H    Isotropic =    27.5201   Anisotropy =     7.5079

     12  H    Isotropic =    28.4735   Anisotropy =     8.6260

     13  H    Isotropic =    29.0336   Anisotropy =     7.5462

     14  H    Isotropic =    29.3330   Anisotropy =    10.5778

     15  H    Isotropic =    29.4643   Anisotropy =    11.6331

     16  H    Isotropic =    28.5758   Anisotropy =     5.3093

     17  H    Isotropic =    27.0184   Anisotropy =     5.1179

     18  H    Isotropic =    27.8914   Anisotropy =     6.8659

     19  O    Isotropic =   293.4094   Anisotropy =    40.8430

     20  H    Isotropic =    29.9706   Anisotropy =    19.0752

     21  O    Isotropic =   295.8384   Anisotropy =    74.1463

     22  H    Isotropic =    30.3739   Anisotropy =    20.1957

     23  C    Isotropic =   128.1508   Anisotropy =    47.7148

     24  H    Isotropic =    27.8052   Anisotropy =     6.4716

     25  H    Isotropic =    27.6117   Anisotropy =     6.0094

     26  O    Isotropic =   309.5792   Anisotropy =    41.9668

     27  H    Isotropic =    30.2931   Anisotropy =    15.1768

 The electronic state is 1-A.
 Alpha  occ. eigenvalues --  -19.26050 -19.26046 -19.25375 -14.41038 -10.30823
 Alpha  occ. eigenvalues --  -10.30472 -10.29171 -10.27823 -10.27624 -10.26833
 Alpha  occ. eigenvalues --  -10.24817 -10.24639  -1.07324  -1.05873  -1.05387
 Alpha  occ. eigenvalues --   -0.96069  -0.82924  -0.78915  -0.75312  -0.72060
 Alpha  occ. eigenvalues --   -0.66418  -0.60848  -0.60606  -0.58084  -0.55579
 Alpha  occ. eigenvalues --   -0.53106  -0.52896  -0.50155  -0.49821  -0.46117
 Alpha  occ. eigenvalues --   -0.45722  -0.44925  -0.43365  -0.42972  -0.40707
 Alpha  occ. eigenvalues --   -0.39136  -0.38095  -0.37200  -0.36043  -0.35672
 Alpha  occ. eigenvalues --   -0.34710  -0.34491  -0.33600  -0.31500  -0.29708
 Alpha  occ. eigenvalues --   -0.29233  -0.22922
 Alpha virt. eigenvalues --    0.00618   0.01295   0.01694   0.02402   0.03325
 Alpha virt. eigenvalues --    0.04213   0.04826   0.05232   0.05535   0.06651
 Alpha virt. eigenvalues --    0.07818   0.07988   0.08590   0.08738   0.10268

 Mulliken atomic charges:
              1
     1  C   -0.422122
     2  C    0.001682
     3  N   -0.210347
     4  C   -0.177495
     5  C   -0.420410
     6  C    0.238625
     7  C   -0.287592
     8  C    0.046258
     9  H    0.178136
    10  H    0.148616
    11  H    0.167591
    12  H    0.154956
    13  H    0.151272
    14  H    0.178977
    15  H    0.175868
    16  H    0.169058
    17  H    0.176424
    18  H    0.167706
    19  O   -0.579526
    20  H    0.383558
    21  O   -0.550625
    22  H    0.386899
    23  C   -0.238260
    24  H    0.162704
    25  H    0.169023
    26  O   -0.545247
    27  H    0.374271
 Sum of Mulliken atomic charges =   0.00000

 Dipole moment (field-independent basis, Debye):
    X=             -4.8240    Y=             -2.9453    Z=             -0.8861  Tot=              5.7211
 Quadrupole moment (field-independent basis, Debye-Ang):
   XX=            -74.4013   YY=            -63.8598   ZZ=            -78.2345
   XY=             -3.9643   XZ=             -0.7711   YZ=             -0.1245

 Normal termination of Gaussian 09 at Fri May 17 12:16:50 2024.
