 Gaussian 09, Revision C.01,
 Gaussian 09:  AM64L-G09RevC.01 23-Sep-2011

 ------------------------------------------------
 # mpw1pw91/6-31+G** nmr scrf=(pcm,solvent=water)
 ------------------------------------------------

 99/9=1/99;
 -------
 comment
 -------
 Charge =  0 Multiplicity = 1

                         Standard orientation:
 ---------------------------------------------------------------------
 Center     Atomic      Atomic             Coordinates (Angstroms)
 Number     Number       Type             X           Y           Z
 ---------------------------------------------------------------------
      1          6           0       -2.364442   -0.670479    0.460249
      2          6           0       -1.249000   -0.883159   -0.599695
      3          7           0       -0.807494    0.477448   -1.051297
      4          6           0       -1.774705    1.445705   -0.506827
      5          6           0       -2.302225    0.830973    0.797938
      6          6           0        0.632477    0.656077   -0.780212
      7          6           0        1.145092   -0.805340   -0.835450
      8          6           0        0.023721   -1.620583   -0.159624
      9          1           0       -3.336811   -0.918195    0.021160
     10          1           0       -2.226028   -1.306700    1.337705
     11          1           0       -1.665073   -1.423575   -1.458351
     12          1           0       -2.605630    1.556317   -1.217871
     13          1           0       -1.325538    2.434547   -0.388653
     14          1           0       -3.275197    1.237915    1.093704
     15          1           0       -1.597849    1.013959    1.617202
     16          1           0        1.089336    1.235756   -1.593589
     17          1           0        1.216125   -1.112049   -1.886381
     18          1           0        0.019657   -2.662105   -0.507408
     19          8           0        0.205276   -1.602378    1.258822
     20          1           0        1.177019   -1.572183    1.369624
     21          8           0        2.395201   -1.044667   -0.189899
     22          1           0        2.726777   -0.170537    0.118766
     23          6           0        1.030590    1.382828    0.517510
     24          1           0        0.544899    2.362674    0.580180
     25          1           0        0.768032    0.802314    1.405009
     26          8           0        2.464922    1.567130    0.451248
     27          1           0        2.770494    1.802918    1.343272
 ---------------------------------------------------------------------

 SCF Done:  E(RmPW1PW91) =  -594.191938812     A.U. after   13 cycles

      1  C    Isotropic =   169.0252   Anisotropy =    23.5947

      2  C    Isotropic =   127.9731   Anisotropy =    56.0139

      3  N    Isotropic =   199.8234   Anisotropy =    73.7128

      4  C    Isotropic =   146.9085   Anisotropy =    44.8790

      5  C    Isotropic =   165.8816   Anisotropy =    23.4383

      6  C    Isotropic =   134.2836   Anisotropy =    49.9991

      7  C    Isotropic =   117.0087   Anisotropy =    57.5752

      8  C    Isotropic =   122.3383   Anisotropy =    27.3003

      9  H    Isotropic =    29.9858   Anisotropy =    12.7318

     10  H    Isotropic =    29.3523   Anisotropy =     8.2648

     11  H    Isotropic =    27.9392   Anisotropy =     9.7808

     12  H    Isotropic =    28.9454   Anisotropy =    12.7355

     13  H    Isotropic =    28.5267   Anisotropy =     8.5781

     14  H    Isotropic =    29.9958   Anisotropy =    12.5850

     15  H    Isotropic =    30.4449   Anisotropy =     7.7031

     16  H    Isotropic =    28.0952   Anisotropy =     7.4466

     17  H    Isotropic =    27.0265   Anisotropy =     6.7792

     18  H    Isotropic =    27.6247   Anisotropy =     9.5720

     19  O    Isotropic =   307.8384   Anisotropy =    43.8453

     20  H    Isotropic =    28.3216   Anisotropy =    17.4775

     21  O    Isotropic =   311.0343   Anisotropy =    38.6457

     22  H    Isotropic =    25.3758   Anisotropy =    26.7245

     23  C    Isotropic =   132.3927   Anisotropy =    65.9614

     24  H    Isotropic =    27.5080   Anisotropy =     6.2567

     25  H    Isotropic =    27.2554   Anisotropy =     5.3363

     26  O    Isotropic =   315.0993   Anisotropy =    82.0456

     27  H    Isotropic =    29.9690   Anisotropy =    20.9078

 The electronic state is 1-A.
 Alpha  occ. eigenvalues --  -19.27545 -19.25488 -19.24878 -14.41294 -10.30643
 Alpha  occ. eigenvalues --  -10.30152 -10.29888 -10.28765 -10.27673 -10.26967
 Alpha  occ. eigenvalues --  -10.24294 -10.24248  -1.08262  -1.06553  -1.04043
 Alpha  occ. eigenvalues --   -0.96377  -0.82440  -0.79027  -0.75554  -0.71353
 Alpha  occ. eigenvalues --   -0.67455  -0.61496  -0.60053  -0.58196  -0.54650
 Alpha  occ. eigenvalues --   -0.54050  -0.52377  -0.50371  -0.49137  -0.48188
 Alpha  occ. eigenvalues --   -0.46874  -0.43750  -0.43205  -0.42677  -0.41206
 Alpha  occ. eigenvalues --   -0.39700  -0.38361  -0.37303  -0.36626  -0.35554
 Alpha  occ. eigenvalues --   -0.35010  -0.34561  -0.33492  -0.31377  -0.29762
 Alpha  occ. eigenvalues --   -0.28527  -0.22847
 Alpha virt. eigenvalues --    0.00112   0.00902   0.02032   0.02430   0.03868
 Alpha virt. eigenvalues --    0.04299   0.04512   0.04739   0.05543   0.07275
 Alpha virt. eigenvalues --    0.08094   0.08340   0.08944   0.09479   0.09776

 Mulliken atomic charges:
              1
     1  C   -0.535631
     2  C    0.072580
     3  N   -0.082925
     4  C   -0.197995
     5  C   -0.263644
     6  C   -0.363616
     7  C   -0.165530
     8  C    0.106868
     9  H    0.173000
    10  H    0.184175
    11  H    0.164545
    12  H    0.165875
    13  H    0.157316
    14  H    0.169456
    15  H    0.169916
    16  H    0.179011
    17  H    0.178580
    18  H    0.156242
    19  O   -0.577435
    20  H    0.393537
    21  O   -0.619350
    22  H    0.430890
    23  C   -0.040913
    24  H    0.165890
    25  H    0.193370
    26  O   -0.626103
    27  H    0.411892
 Sum of Mulliken atomic charges =   0.00000

 Dipole moment (field-independent basis, Debye):
    X=             -0.7719    Y=              2.8615    Z=              1.6301  Tot=              3.3825
 Quadrupole moment (field-independent basis, Debye-Ang):
   XX=            -73.2665   YY=            -72.7841   ZZ=            -73.3749
   XY=              3.6710   XZ=              6.7531   YZ=              7.5683

 Normal termination of Gaussian 09 at Fri May 17 12:52:31 2024.
