 Gaussian 09, Revision C.01,
 Gaussian 09:  AM64L-G09RevC.01 23-Sep-2011

 ------------------------------------------------
 # mpw1pw91/6-31+G** nmr scrf=(pcm,solvent=water)
 ------------------------------------------------

 99/9=1/99;
 -------
 comment
 -------
 Charge =  0 Multiplicity = 1

                         Standard orientation:
 ---------------------------------------------------------------------
 Center     Atomic      Atomic             Coordinates (Angstroms)
 Number     Number       Type             X           Y           Z
 ---------------------------------------------------------------------
      1          6           0       -2.478401   -0.664385    0.331395
      2          6           0       -1.256139   -0.774727   -0.592884
      3          7           0       -0.760422    0.626880   -0.790145
      4          6           0       -1.561383    1.529378    0.060132
      5          6           0       -2.905213    0.805231    0.174612
      6          6           0        0.714899    0.657228   -0.712318
      7          6           0        1.112947   -0.847189   -0.806395
      8          6           0       -0.049371   -1.591085   -0.127189
      9          1           0       -3.266828   -1.374278    0.064245
     10          1           0       -2.187139   -0.855098    1.368850
     11          1           0       -1.560480   -1.183629   -1.566813
     12          1           0       -1.653614    2.523350   -0.394175
     13          1           0       -1.140803    1.667966    1.067049
     14          1           0       -3.491328    0.941505   -0.742105
     15          1           0       -3.502849    1.170939    1.015401
     16          1           0        1.124720    1.184644   -1.587420
     17          1           0        1.142174   -1.137229   -1.864941
     18          1           0       -0.112303   -2.636694   -0.458202
     19          8           0        0.123714   -1.542963    1.291128
     20          1           0        1.093680   -1.575828    1.411756
     21          8           0        2.349827   -1.196839   -0.185893
     22          1           0        2.802329   -0.354675    0.047108
     23          6           0        1.306560    1.375449    0.515606
     24          1           0        0.939815    2.406077    0.570786
     25          1           0        1.054732    0.863981    1.445873
     26          8           0        2.748581    1.384862    0.451011
     27          1           0        3.000472    1.870931   -0.354120
 ---------------------------------------------------------------------

 SCF Done:  E(RmPW1PW91) =  -594.193325247     A.U. after   13 cycles

      1  C    Isotropic =   170.1784   Anisotropy =    18.5673

      2  C    Isotropic =   127.8257   Anisotropy =    50.5727

      3  N    Isotropic =   201.0057   Anisotropy =    89.2475

      4  C    Isotropic =   147.1652   Anisotropy =    39.6338

      5  C    Isotropic =   164.8678   Anisotropy =    23.1620

      6  C    Isotropic =   134.9669   Anisotropy =    47.3743

      7  C    Isotropic =   114.5451   Anisotropy =    57.1766

      8  C    Isotropic =   122.8880   Anisotropy =    30.4876

      9  H    Isotropic =    29.9000   Anisotropy =    11.5948

     10  H    Isotropic =    29.4189   Anisotropy =     7.0611

     11  H    Isotropic =    27.9757   Anisotropy =     9.1995

     12  H    Isotropic =    28.7830   Anisotropy =    10.3168

     13  H    Isotropic =    28.8061   Anisotropy =     7.4514

     14  H    Isotropic =    29.6378   Anisotropy =    11.0504

     15  H    Isotropic =    29.6105   Anisotropy =    11.5596

     16  H    Isotropic =    28.2362   Anisotropy =     7.2640

     17  H    Isotropic =    26.8866   Anisotropy =     6.2385

     18  H    Isotropic =    27.7792   Anisotropy =     9.3225

     19  O    Isotropic =   306.3884   Anisotropy =    39.7168

     20  H    Isotropic =    28.2095   Anisotropy =    17.4077

     21  O    Isotropic =   310.2050   Anisotropy =    40.9765

     22  H    Isotropic =    25.3005   Anisotropy =    27.2316

     23  C    Isotropic =   129.6811   Anisotropy =    60.2227

     24  H    Isotropic =    27.3573   Anisotropy =     6.0530

     25  H    Isotropic =    27.2261   Anisotropy =     4.0148

     26  O    Isotropic =   307.5037   Anisotropy =    73.5151

     27  H    Isotropic =    30.3811   Anisotropy =    18.1259

 The electronic state is 1-A.
 Alpha  occ. eigenvalues --  -19.27752 -19.25478 -19.24941 -14.41165 -10.30701
 Alpha  occ. eigenvalues --  -10.30363 -10.29810 -10.28865 -10.27704 -10.26973
 Alpha  occ. eigenvalues --  -10.24571 -10.24370  -1.08407  -1.06681  -1.04089
 Alpha  occ. eigenvalues --   -0.96228  -0.82811  -0.79305  -0.75037  -0.71548
 Alpha  occ. eigenvalues --   -0.67898  -0.61360  -0.60440  -0.57692  -0.55681
 Alpha  occ. eigenvalues --   -0.53150  -0.52939  -0.51042  -0.48959  -0.48014
 Alpha  occ. eigenvalues --   -0.46530  -0.44139  -0.43184  -0.41683  -0.40802
 Alpha  occ. eigenvalues --   -0.40135  -0.38369  -0.37704  -0.36929  -0.36212
 Alpha  occ. eigenvalues --   -0.35122  -0.34714  -0.33697  -0.31473  -0.29663
 Alpha  occ. eigenvalues --   -0.28883  -0.22361
 Alpha virt. eigenvalues --    0.00047   0.01406   0.02019   0.02420   0.03875
 Alpha virt. eigenvalues --    0.04528   0.04639   0.05009   0.05481   0.07436
 Alpha virt. eigenvalues --    0.07684   0.08711   0.09007   0.09350   0.09475

 Mulliken atomic charges:
              1
     1  C   -0.554196
     2  C    0.159560
     3  N   -0.108990
     4  C   -0.234420
     5  C   -0.330906
     6  C   -0.329499
     7  C   -0.016678
     8  C    0.064379
     9  H    0.172566
    10  H    0.187515
    11  H    0.164074
    12  H    0.165160
    13  H    0.153312
    14  H    0.177534
    15  H    0.175361
    16  H    0.168445
    17  H    0.177039
    18  H    0.157601
    19  O   -0.581456
    20  H    0.392619
    21  O   -0.630219
    22  H    0.431208
    23  C   -0.148117
    24  H    0.182039
    25  H    0.199978
    26  O   -0.599870
    27  H    0.405962
 Sum of Mulliken atomic charges =   0.00000

 Dipole moment (field-independent basis, Debye):
    X=             -0.6349    Y=              3.1478    Z=             -1.8215  Tot=              3.6918
 Quadrupole moment (field-independent basis, Debye-Ang):
   XX=            -73.2206   YY=            -71.6119   ZZ=            -75.5336
   XY=              6.0171   XZ=             -3.9358   YZ=              1.7409

 Normal termination of Gaussian 09 at Fri May 17 13:03:26 2024.
