 Gaussian 09, Revision C.01,
 Gaussian 09:  AM64L-G09RevC.01 23-Sep-2011

 ------------------------------------------------
 # mpw1pw91/6-31+G** nmr scrf=(pcm,solvent=water)
 ------------------------------------------------

 99/9=1/99;
 -------
 comment
 -------
 Charge =  0 Multiplicity = 1

                         Standard orientation:
 ---------------------------------------------------------------------
 Center     Atomic      Atomic             Coordinates (Angstroms)
 Number     Number       Type             X           Y           Z
 ---------------------------------------------------------------------
      1          6           0       -1.874590    1.486792   -0.369436
      2          6           0       -0.965336    0.472921   -1.075018
      3          7           0        0.421276    0.798077   -0.620854
      4          6           0        0.314598    1.657439    0.596081
      5          6           0       -1.172048    1.719622    0.974803
      6          6           0        1.108514   -0.511550   -0.509183
      7          6           0        0.063137   -1.517796   -0.013642
      8          6           0       -1.215877   -1.040290   -0.749796
      9          1           0       -1.897245    2.415306   -0.952336
     10          1           0       -2.901881    1.128399   -0.271788
     11          1           0       -1.033177    0.587128   -2.162376
     12          1           0        0.679714    2.663718    0.349577
     13          1           0        0.931981    1.289837    1.417986
     14          1           0       -1.444075    2.671481    1.442301
     15          1           0       -1.420092    0.914791    1.674268
     16          1           0        1.351095   -0.820870   -1.537279
     17          1           0        0.328136   -2.548361   -0.287156
     18          1           0       -1.331133   -1.599025   -1.683292
     19          8           0       -2.381959   -1.235150    0.060298
     20          1           0       -2.645777   -2.166486   -0.033241
     21          8           0       -0.126117   -1.432664    1.400204
     22          1           0       -1.099038   -1.442208    1.513424
     23          6           0        2.427339   -0.517238    0.254165
     24          1           0        2.286344   -0.272063    1.313339
     25          1           0        2.843346   -1.528737    0.207961
     26          8           0        3.411137    0.339750   -0.336050
     27          1           0        3.063952    1.245659   -0.288874
 ---------------------------------------------------------------------

 SCF Done:  E(RmPW1PW91) =  -594.189526387     A.U. after   13 cycles

      1  C    Isotropic =   167.5624   Anisotropy =    24.6528

      2  C    Isotropic =   126.9805   Anisotropy =    56.0722

      3  N    Isotropic =   196.3219   Anisotropy =    94.6955

      4  C    Isotropic =   149.0329   Anisotropy =    49.9572

      5  C    Isotropic =   167.8068   Anisotropy =    18.7516

      6  C    Isotropic =   127.5965   Anisotropy =    27.8042

      7  C    Isotropic =   121.6005   Anisotropy =    25.6213

      8  C    Isotropic =   119.3927   Anisotropy =    43.8567

      9  H    Isotropic =    29.7205   Anisotropy =    12.2766

     10  H    Isotropic =    29.3857   Anisotropy =     9.0229

     11  H    Isotropic =    27.9146   Anisotropy =     9.6421

     12  H    Isotropic =    28.8559   Anisotropy =    12.0580

     13  H    Isotropic =    28.1394   Anisotropy =     6.6389

     14  H    Isotropic =    29.9892   Anisotropy =    12.4207

     15  H    Isotropic =    29.8082   Anisotropy =     6.7043

     16  H    Isotropic =    28.4807   Anisotropy =     8.9175

     17  H    Isotropic =    27.8607   Anisotropy =     8.8637

     18  H    Isotropic =    27.3118   Anisotropy =     7.2712

     19  O    Isotropic =   310.6927   Anisotropy =    93.7344

     20  H    Isotropic =    30.0970   Anisotropy =    23.7203

     21  O    Isotropic =   317.0114   Anisotropy =    37.1507

     22  H    Isotropic =    28.3646   Anisotropy =    17.4270

     23  C    Isotropic =   132.8090   Anisotropy =    61.2014

     24  H    Isotropic =    27.1393   Anisotropy =     4.2234

     25  H    Isotropic =    27.6494   Anisotropy =     6.2857

     26  O    Isotropic =   313.3632   Anisotropy =    33.4587

     27  H    Isotropic =    30.1544   Anisotropy =    14.9447

 The electronic state is 1-A.
 Alpha  occ. eigenvalues --  -19.27288 -19.25599 -19.24839 -14.41061 -10.30835
 Alpha  occ. eigenvalues --  -10.29988 -10.29777 -10.27982 -10.27874 -10.26619
 Alpha  occ. eigenvalues --  -10.24366 -10.24110  -1.08410  -1.05725  -1.04543
 Alpha  occ. eigenvalues --   -0.95933  -0.82517  -0.78618  -0.75508  -0.71671
 Alpha  occ. eigenvalues --   -0.66836  -0.62033  -0.59272  -0.57713  -0.55714
 Alpha  occ. eigenvalues --   -0.53361  -0.51851  -0.50906  -0.48914  -0.47732
 Alpha  occ. eigenvalues --   -0.46545  -0.44162  -0.43753  -0.41916  -0.39902
 Alpha  occ. eigenvalues --   -0.39140  -0.38830  -0.36720  -0.36264  -0.35182
 Alpha  occ. eigenvalues --   -0.34703  -0.34656  -0.33138  -0.31905  -0.29330
 Alpha  occ. eigenvalues --   -0.29182  -0.22865
 Alpha virt. eigenvalues --   -0.00165   0.01276   0.01904   0.02307   0.03718
 Alpha virt. eigenvalues --    0.04250   0.04611   0.05023   0.05291   0.07281
 Alpha virt. eigenvalues --    0.07849   0.08410   0.08632   0.08968   0.09704

 Mulliken atomic charges:
              1
     1  C   -0.470131
     2  C   -0.042278
     3  N   -0.220974
     4  C   -0.267130
     5  C   -0.269973
     6  C    0.215238
     7  C    0.013557
     8  C   -0.081609
     9  H    0.175613
    10  H    0.185857
    11  H    0.166850
    12  H    0.159305
    13  H    0.155070
    14  H    0.169411
    15  H    0.176689
    16  H    0.172253
    17  H    0.159900
    18  H    0.178784
    19  O   -0.639587
    20  H    0.414381
    21  O   -0.594100
    22  H    0.394498
    23  C   -0.322058
    24  H    0.159554
    25  H    0.172729
    26  O   -0.543575
    27  H    0.381727
 Sum of Mulliken atomic charges =   0.00000

 Dipole moment (field-independent basis, Debye):
    X=             -4.0514    Y=             -1.6554    Z=             -0.8812  Tot=              4.4643
 Quadrupole moment (field-independent basis, Debye-Ang):
   XX=            -83.3828   YY=            -62.9491   ZZ=            -75.3572
   XY=              5.4734   XZ=              3.9584   YZ=              5.7709

 Normal termination of Gaussian 09 at Fri May 17 13:09:36 2024.
