 Gaussian 09, Revision C.01,
 Gaussian 09:  AM64L-G09RevC.01 23-Sep-2011

 ------------------------------------------------
 # mpw1pw91/6-31+G** nmr scrf=(pcm,solvent=water)
 ------------------------------------------------

 99/9=1/99;
 -------
 comment
 -------
 Charge =  0 Multiplicity = 1

                         Standard orientation:
 ---------------------------------------------------------------------
 Center     Atomic      Atomic             Coordinates (Angstroms)
 Number     Number       Type             X           Y           Z
 ---------------------------------------------------------------------
      1          6           0        2.327473   -0.458598    0.133536
      2          6           0        1.261873    0.010553   -0.873584
      3          7           0        0.113420   -0.951240   -0.742597
      4          6           0        0.435359   -1.883173    0.368121
      5          6           0        1.962136   -1.932454    0.362402
      6          6           0       -1.113603   -0.130267   -0.601876
      7          6           0       -0.682859    1.196448    0.033952
      8          6           0        0.668499    1.437461   -0.659098
      9          1           0        3.345849   -0.314532   -0.240584
     10          1           0        2.234251    0.095452    1.073085
     11          1           0        1.664377   -0.048308   -1.891633
     12          1           0       -0.023271   -2.862798    0.192578
     13          1           0        0.089077   -1.523563    1.345648
     14          1           0        2.321987   -2.552431   -0.467686
     15          1           0        2.370218   -2.339059    1.293064
     16          1           0       -1.457755    0.126836   -1.616968
     17          1           0       -1.398720    2.003218   -0.171265
     18          1           0        0.484625    1.902293   -1.636092
     19          8           0        1.441413    2.323495    0.152674
     20          1           0        2.369388    2.266093   -0.128813
     21          8           0       -0.500188    1.055204    1.445965
     22          1           0        0.249956    1.638555    1.667140
     23          6           0       -2.284469   -0.843468    0.072318
     24          1           0       -2.448676   -1.818517   -0.406844
     25          1           0       -2.093336   -1.017499    1.133121
     26          8           0       -3.472737   -0.046911    0.020960
     27          1           0       -3.696264    0.069623   -0.917987
 ---------------------------------------------------------------------

 SCF Done:  E(RmPW1PW91) =  -594.190306143     A.U. after   13 cycles

      1  C    Isotropic =   168.4260   Anisotropy =    19.3297

      2  C    Isotropic =   127.4640   Anisotropy =    53.5331

      3  N    Isotropic =   190.6018   Anisotropy =    91.8474

      4  C    Isotropic =   144.8002   Anisotropy =    48.2680

      5  C    Isotropic =   166.5121   Anisotropy =    20.8783

      6  C    Isotropic =   128.5497   Anisotropy =    42.3058

      7  C    Isotropic =   120.1886   Anisotropy =    31.3089

      8  C    Isotropic =   119.7052   Anisotropy =    50.4432

      9  H    Isotropic =    30.0328   Anisotropy =    11.1537

     10  H    Isotropic =    29.6197   Anisotropy =     6.1671

     11  H    Isotropic =    27.8647   Anisotropy =     8.9105

     12  H    Isotropic =    28.8064   Anisotropy =     9.6143

     13  H    Isotropic =    28.2671   Anisotropy =     6.3802

     14  H    Isotropic =    29.8172   Anisotropy =    11.3157

     15  H    Isotropic =    29.7065   Anisotropy =    11.7485

     16  H    Isotropic =    28.7808   Anisotropy =     7.9233

     17  H    Isotropic =    27.3109   Anisotropy =     7.8155

     18  H    Isotropic =    27.2303   Anisotropy =     7.0832

     19  O    Isotropic =   304.1038   Anisotropy =    49.8026

     20  H    Isotropic =    30.0333   Anisotropy =    18.4313

     21  O    Isotropic =   314.2012   Anisotropy =    28.6461

     22  H    Isotropic =    28.5855   Anisotropy =    17.0270

     23  C    Isotropic =   135.8084   Anisotropy =    69.6236

     24  H    Isotropic =    27.5071   Anisotropy =     5.6230

     25  H    Isotropic =    27.3211   Anisotropy =     4.2013

     26  O    Isotropic =   307.6211   Anisotropy =    57.6745

     27  H    Isotropic =    30.6182   Anisotropy =    17.4349

 The electronic state is 1-A.
 Alpha  occ. eigenvalues --  -19.26862 -19.25800 -19.24954 -14.41175 -10.30691
 Alpha  occ. eigenvalues --  -10.29960 -10.29784 -10.28141 -10.27813 -10.26513
 Alpha  occ. eigenvalues --  -10.24589 -10.24555  -1.08039  -1.05940  -1.04623
 Alpha  occ. eigenvalues --   -0.96092  -0.82842  -0.78855  -0.75110  -0.71852
 Alpha  occ. eigenvalues --   -0.67067  -0.61513  -0.59991  -0.58673  -0.54433
 Alpha  occ. eigenvalues --   -0.52932  -0.52337  -0.51068  -0.49359  -0.47041
 Alpha  occ. eigenvalues --   -0.46715  -0.44731  -0.43084  -0.41659  -0.41044
 Alpha  occ. eigenvalues --   -0.38790  -0.38386  -0.37208  -0.35914  -0.35514
 Alpha  occ. eigenvalues --   -0.34985  -0.34706  -0.34188  -0.30763  -0.29962
 Alpha  occ. eigenvalues --   -0.28855  -0.22731
 Alpha virt. eigenvalues --   -0.00138   0.01349   0.01962   0.02192   0.03651
 Alpha virt. eigenvalues --    0.04055   0.05003   0.05214   0.05469   0.06721
 Alpha virt. eigenvalues --    0.07851   0.08616   0.08973   0.09079   0.09522

 Mulliken atomic charges:
              1
     1  C   -0.411863
     2  C   -0.042746
     3  N   -0.164446
     4  C   -0.089988
     5  C   -0.523721
     6  C   -0.153416
     7  C    0.194181
     8  C   -0.130863
     9  H    0.178626
    10  H    0.188204
    11  H    0.167260
    12  H    0.161657
    13  H    0.172844
    14  H    0.177401
    15  H    0.176861
    16  H    0.164994
    17  H    0.159267
    18  H    0.174752
    19  O   -0.590965
    20  H    0.392368
    21  O   -0.604978
    22  H    0.393286
    23  C   -0.166270
    24  H    0.170310
    25  H    0.175005
    26  O   -0.541602
    27  H    0.373842
 Sum of Mulliken atomic charges =   0.00000

 Dipole moment (field-independent basis, Debye):
    X=              3.8194    Y=             -0.2226    Z=             -3.1660  Tot=              4.9660
 Quadrupole moment (field-independent basis, Debye-Ang):
   XX=            -70.8695   YY=            -74.0400   ZZ=            -73.3189
   XY=              3.8121   XZ=              7.9861   YZ=             -5.8143

 Normal termination of Gaussian 09 at Fri May 17 12:53:50 2024.
