 Gaussian 09, Revision C.01,
 Gaussian 09:  AM64L-G09RevC.01 23-Sep-2011

 ------------------------------------------------
 # mpw1pw91/6-31+G** nmr scrf=(pcm,solvent=water)
 ------------------------------------------------

 99/9=1/99;
 -------
 comment
 -------
 Charge =  0 Multiplicity = 1

                         Standard orientation:
 ---------------------------------------------------------------------
 Center     Atomic      Atomic             Coordinates (Angstroms)
 Number     Number       Type             X           Y           Z
 ---------------------------------------------------------------------
      1          6           0       -2.295962   -0.903723    0.275945
      2          6           0       -1.041655   -0.949117   -0.608598
      3          7           0       -0.619157    0.477968   -0.800531
      4          6           0       -1.505980    1.340184    0.002350
      5          6           0       -2.805043    0.534022    0.081527
      6          6           0        0.853653    0.598136   -0.690741
      7          6           0        1.339736   -0.888346   -0.750980
      8          6           0        0.197010   -1.702422   -0.112841
      9          1           0       -3.028136   -1.666748   -0.004287
     10          1           0       -2.032879   -1.066312    1.327300
     11          1           0       -1.295769   -1.381059   -1.587010
     12          1           0       -1.645257    2.317334   -0.474881
     13          1           0       -1.129078    1.525096    1.018799
     14          1           0       -3.362339    0.618106   -0.859215
     15          1           0       -3.456689    0.872523    0.893176
     16          1           0        1.245331    1.124237   -1.576025
     17          1           0        1.429000   -1.177632   -1.802938
     18          1           0        0.209960   -2.741341   -0.450733
     19          8           0        0.373674   -1.782821    1.310581
     20          1           0        0.115502   -0.940956    1.722337
     21          8           0        2.596424   -1.155183   -0.145466
     22          1           0        2.390966   -1.312407    0.796598
     23          6           0        1.414753    1.374255    0.508290
     24          1           0        0.990201    1.040662    1.459959
     25          1           0        2.496930    1.198769    0.549548
     26          8           0        1.146116    2.779609    0.430382
     27          1           0        1.537562    3.093183   -0.402606
 ---------------------------------------------------------------------

 SCF Done:  E(RmPW1PW91) =  -594.187106740     A.U. after   14 cycles

      1  C    Isotropic =   169.6543   Anisotropy =    19.5755

      2  C    Isotropic =   130.3473   Anisotropy =    47.7589

      3  N    Isotropic =   203.1473   Anisotropy =    93.4670

      4  C    Isotropic =   145.5649   Anisotropy =    35.8282

      5  C    Isotropic =   165.5327   Anisotropy =    23.0511

      6  C    Isotropic =   129.2710   Anisotropy =    26.0779

      7  C    Isotropic =   117.2092   Anisotropy =    52.2759

      8  C    Isotropic =   120.4513   Anisotropy =    31.9079

      9  H    Isotropic =    29.7642   Anisotropy =    11.7750

     10  H    Isotropic =    29.9337   Anisotropy =     7.0346

     11  H    Isotropic =    27.8747   Anisotropy =     9.5826

     12  H    Isotropic =    28.5042   Anisotropy =     9.6030

     13  H    Isotropic =    28.4161   Anisotropy =     7.5647

     14  H    Isotropic =    29.6120   Anisotropy =    11.0608

     15  H    Isotropic =    29.5541   Anisotropy =    11.5071

     16  H    Isotropic =    28.1390   Anisotropy =     7.3787

     17  H    Isotropic =    27.0960   Anisotropy =     6.5744

     18  H    Isotropic =    27.8432   Anisotropy =     8.8455

     19  O    Isotropic =   304.6964   Anisotropy =    89.3155

     20  H    Isotropic =    31.2511   Anisotropy =    14.6812

     21  O    Isotropic =   304.4379   Anisotropy =    25.8403

     22  H    Isotropic =    28.8373   Anisotropy =    13.5856

     23  C    Isotropic =   131.7753   Anisotropy =    62.2361

     24  H    Isotropic =    27.9532   Anisotropy =     3.9801

     25  H    Isotropic =    27.5694   Anisotropy =     7.0621

     26  O    Isotropic =   304.1445   Anisotropy =    92.4169

     27  H    Isotropic =    31.0546   Anisotropy =    17.5552

 The electronic state is 1-A.
 Alpha  occ. eigenvalues --  -19.27211 -19.25855 -19.25648 -14.41069 -10.30840
 Alpha  occ. eigenvalues --  -10.30807 -10.29847 -10.28398 -10.28147 -10.26808
 Alpha  occ. eigenvalues --  -10.24935 -10.24630  -1.08415  -1.05819  -1.05379
 Alpha  occ. eigenvalues --   -0.96158  -0.82929  -0.79521  -0.75130  -0.71808
 Alpha  occ. eigenvalues --   -0.67937  -0.62079  -0.60567  -0.58289  -0.56024
 Alpha  occ. eigenvalues --   -0.53987  -0.51198  -0.49978  -0.48895  -0.47853
 Alpha  occ. eigenvalues --   -0.46943  -0.45354  -0.42980  -0.41484  -0.41081
 Alpha  occ. eigenvalues --   -0.39800  -0.39376  -0.37140  -0.36884  -0.35774
 Alpha  occ. eigenvalues --   -0.35413  -0.34761  -0.34028  -0.32107  -0.30665
 Alpha  occ. eigenvalues --   -0.28345  -0.22146
 Alpha virt. eigenvalues --   -0.00024   0.01426   0.01647   0.02169   0.03844
 Alpha virt. eigenvalues --    0.04450   0.04608   0.04915   0.05309   0.07540
 Alpha virt. eigenvalues --    0.07708   0.08179   0.08816   0.09077   0.09307

 Mulliken atomic charges:
              1
     1  C   -0.450430
     2  C    0.032602
     3  N   -0.161780
     4  C   -0.186791
     5  C   -0.346908
     6  C   -0.178324
     7  C   -0.136179
     8  C   -0.009829
     9  H    0.179855
    10  H    0.166199
    11  H    0.171710
    12  H    0.161941
    13  H    0.156776
    14  H    0.179550
    15  H    0.176678
    16  H    0.157614
    17  H    0.189337
    18  H    0.178887
    19  O   -0.587154
    20  H    0.394374
    21  O   -0.504231
    22  H    0.388328
    23  C   -0.138291
    24  H    0.156419
    25  H    0.183509
    26  O   -0.546019
    27  H    0.372158
 Sum of Mulliken atomic charges =   0.00000

 Dipole moment (field-independent basis, Debye):
    X=             -1.9658    Y=             -0.0048    Z=             -0.4258  Tot=              2.0114
 Quadrupole moment (field-independent basis, Debye-Ang):
   XX=            -75.7660   YY=            -79.9215   ZZ=            -71.6336
   XY=              5.6030   XZ=             -1.5912   YZ=             -1.0060

 Normal termination of Gaussian 09 at Fri May 17 13:10:32 2024.
