 Gaussian 09, Revision C.01,
 Gaussian 09:  AM64L-G09RevC.01 23-Sep-2011

 ------------------------------------------------
 # mpw1pw91/6-31+G** nmr scrf=(pcm,solvent=water)
 ------------------------------------------------

 99/9=1/99;
 -------
 comment
 -------
 Charge =  0 Multiplicity = 1

                         Standard orientation:
 ---------------------------------------------------------------------
 Center     Atomic      Atomic             Coordinates (Angstroms)
 Number     Number       Type             X           Y           Z
 ---------------------------------------------------------------------
      1          6           0        2.394587   -0.735659   -0.347555
      2          6           0        1.185781   -0.133349   -1.072090
      3          7           0        0.034267   -1.029299   -0.738588
      4          6           0        0.425554   -1.846384    0.451753
      5          6           0        1.784916   -1.321564    0.933017
      6          6           0       -1.128222   -0.123953   -0.606651
      7          6           0       -0.611635    1.180583    0.015922
      8          6           0        0.772479    1.324319   -0.652446
      9          1           0        2.824826   -1.533470   -0.964536
     10          1           0        3.183981   -0.002386   -0.158492
     11          1           0        1.345790   -0.129874   -2.156169
     12          1           0        0.519328   -2.895662    0.141585
     13          1           0       -0.331458   -1.816546    1.237643
     14          1           0        2.400727   -2.107822    1.381655
     15          1           0        1.646528   -0.530213    1.676173
     16          1           0       -1.439414    0.135668   -1.629888
     17          1           0       -1.261172    2.033559   -0.218640
     18          1           0        0.669677    1.938559   -1.554739
     19          8           0        1.639038    1.986034    0.270627
     20          1           0        2.489588    2.145304   -0.169787
     21          8           0       -0.492559    1.047045    1.434661
     22          1           0        0.300411    1.555668    1.684451
     23          6           0       -2.354429   -0.733869    0.059402
     24          1           0       -2.546583   -1.728530   -0.367563
     25          1           0       -2.210415   -0.850635    1.138787
     26          8           0       -3.453269    0.151489   -0.195172
     27          1           0       -4.191546   -0.145823    0.360602
 ---------------------------------------------------------------------

 SCF Done:  E(RmPW1PW91) =  -594.187873560     A.U. after   13 cycles

      1  C    Isotropic =   167.5964   Anisotropy =    23.3713

      2  C    Isotropic =   126.3775   Anisotropy =    50.6646

      3  N    Isotropic =   189.4935   Anisotropy =    98.3291

      4  C    Isotropic =   146.1876   Anisotropy =    52.7335

      5  C    Isotropic =   167.7438   Anisotropy =    19.2869

      6  C    Isotropic =   128.9112   Anisotropy =    44.6805

      7  C    Isotropic =   122.9674   Anisotropy =    32.1141

      8  C    Isotropic =   119.3296   Anisotropy =    43.0181

      9  H    Isotropic =    29.7914   Anisotropy =    12.4521

     10  H    Isotropic =    29.8132   Anisotropy =     9.1251

     11  H    Isotropic =    28.0929   Anisotropy =     9.4258

     12  H    Isotropic =    28.8897   Anisotropy =    11.9685

     13  H    Isotropic =    28.6112   Anisotropy =     6.3864

     14  H    Isotropic =    30.0482   Anisotropy =    12.4662

     15  H    Isotropic =    29.6713   Anisotropy =     6.6263

     16  H    Isotropic =    28.5761   Anisotropy =     8.2936

     17  H    Isotropic =    27.3451   Anisotropy =     8.0888

     18  H    Isotropic =    27.3290   Anisotropy =     7.4394

     19  O    Isotropic =   308.4870   Anisotropy =    57.1284

     20  H    Isotropic =    29.7839   Anisotropy =    20.1952

     21  O    Isotropic =   323.4569   Anisotropy =    35.6515

     22  H    Isotropic =    28.8497   Anisotropy =    17.4118

     23  C    Isotropic =   135.1018   Anisotropy =    68.2001

     24  H    Isotropic =    27.5485   Anisotropy =     5.4730

     25  H    Isotropic =    27.1764   Anisotropy =     4.6254

     26  O    Isotropic =   316.0862   Anisotropy =    93.6662

     27  H    Isotropic =    30.2203   Anisotropy =    21.3093

 The electronic state is 1-A.
 Alpha  occ. eigenvalues --  -19.26767 -19.25638 -19.24854 -14.41045 -10.30550
 Alpha  occ. eigenvalues --  -10.29833 -10.29724 -10.27949 -10.27586 -10.26450
 Alpha  occ. eigenvalues --  -10.24577 -10.23988  -1.07986  -1.05772  -1.04496
 Alpha  occ. eigenvalues --   -0.95918  -0.82478  -0.78518  -0.75220  -0.71940
 Alpha  occ. eigenvalues --   -0.66500  -0.61780  -0.59363  -0.57642  -0.55333
 Alpha  occ. eigenvalues --   -0.53341  -0.51858  -0.50845  -0.48469  -0.47896
 Alpha  occ. eigenvalues --   -0.46992  -0.44032  -0.43404  -0.40863  -0.40210
 Alpha  occ. eigenvalues --   -0.39610  -0.38545  -0.36798  -0.35983  -0.35333
 Alpha  occ. eigenvalues --   -0.34966  -0.34079  -0.32859  -0.31381  -0.29891
 Alpha  occ. eigenvalues --   -0.28578  -0.22710
 Alpha virt. eigenvalues --   -0.00163   0.01255   0.01949   0.02230   0.03526
 Alpha virt. eigenvalues --    0.04043   0.04926   0.05218   0.05312   0.06949
 Alpha virt. eigenvalues --    0.07773   0.08383   0.08689   0.09111   0.10068

 Mulliken atomic charges:
              1
     1  C   -0.528600
     2  C    0.078060
     3  N   -0.138305
     4  C   -0.219731
     5  C   -0.270491
     6  C   -0.267906
     7  C    0.161868
     8  C   -0.123463
     9  H    0.177815
    10  H    0.159812
    11  H    0.165649
    12  H    0.155103
    13  H    0.153542
    14  H    0.168203
    15  H    0.180382
    16  H    0.173638
    17  H    0.159691
    18  H    0.172806
    19  O   -0.626687
    20  H    0.405541
    21  O   -0.607906
    22  H    0.398254
    23  C   -0.073321
    24  H    0.166922
    25  H    0.165618
    26  O   -0.574488
    27  H    0.387994
 Sum of Mulliken atomic charges =   0.00000

 Dipole moment (field-independent basis, Debye):
    X=              2.6523    Y=             -0.2528    Z=             -0.5735  Tot=              2.7253
 Quadrupole moment (field-independent basis, Debye-Ang):
   XX=            -62.6018   YY=            -72.5129   ZZ=            -74.9841
   XY=              8.1183   XZ=             -6.0779   YZ=             -6.4768

 Normal termination of Gaussian 09 at Fri May 17 13:08:01 2024.
