 Gaussian 09, Revision C.01,
 Gaussian 09:  AM64L-G09RevC.01 23-Sep-2011

 ------------------------------------------------
 # mpw1pw91/6-31+G** nmr scrf=(pcm,solvent=water)
 ------------------------------------------------

 99/9=1/99;
 -------
 comment
 -------
 Charge =  0 Multiplicity = 1

                         Standard orientation:
 ---------------------------------------------------------------------
 Center     Atomic      Atomic             Coordinates (Angstroms)
 Number     Number       Type             X           Y           Z
 ---------------------------------------------------------------------
      1          6           0       -1.917783   -1.079890    0.594820
      2          6           0       -0.822720   -1.088816   -0.475680
      3          7           0       -0.769071    0.313601   -1.008370
      4          6           0       -1.893549    1.088429   -0.451081
      5          6           0       -2.861698    0.020169    0.081298
      6          6           0        0.603093    0.839810   -0.930195
      7          6           0        1.447914   -0.469211   -0.928011
      8          6           0        0.618844   -1.464053   -0.086609
      9          1           0       -2.406273   -2.053246    0.705078
     10          1           0       -1.500267   -0.796466    1.566958
     11          1           0       -1.127420   -1.765415   -1.287034
     12          1           0       -2.358260    1.721399   -1.218032
     13          1           0       -1.583186    1.748406    0.368597
     14          1           0       -3.485019   -0.367943   -0.733583
     15          1           0       -3.528287    0.415025    0.854480
     16          1           0        0.844170    1.407479   -1.841709
     17          1           0        1.494782   -0.834831   -1.959128
     18          1           0        0.846828   -2.499504   -0.350540
     19          8           0        0.950725   -1.346810    1.298186
     20          1           0        0.783904   -0.406889    1.557851
     21          8           0        2.784694   -0.334069   -0.472533
     22          1           0        2.742262   -0.492168    0.490069
     23          6           0        0.932350    1.826598    0.195159
     24          1           0        2.006838    2.034679    0.154078
     25          1           0        0.401281    2.770727    0.022482
     26          8           0        0.576281    1.319027    1.496160
     27          1           0        1.119833    1.780135    2.156314
 ---------------------------------------------------------------------

 SCF Done:  E(RmPW1PW91) =  -594.197118177     A.U. after   13 cycles

      1  C    Isotropic =   169.3556   Anisotropy =    16.2558

      2  C    Isotropic =   127.9831   Anisotropy =    45.7744

      3  N    Isotropic =   209.2910   Anisotropy =    76.2055

      4  C    Isotropic =   148.1261   Anisotropy =    47.3885

      5  C    Isotropic =   165.7692   Anisotropy =    23.8632

      6  C    Isotropic =   131.0197   Anisotropy =    36.7987

      7  C    Isotropic =   118.1675   Anisotropy =    54.9492

      8  C    Isotropic =   124.4732   Anisotropy =    30.7653

      9  H    Isotropic =    30.0077   Anisotropy =    11.8181

     10  H    Isotropic =    29.8486   Anisotropy =     5.9449

     11  H    Isotropic =    27.9455   Anisotropy =     9.6264

     12  H    Isotropic =    28.6836   Anisotropy =    11.3776

     13  H    Isotropic =    28.4899   Anisotropy =     7.3363

     14  H    Isotropic =    29.5855   Anisotropy =    11.4359

     15  H    Isotropic =    29.4770   Anisotropy =    11.6135

     16  H    Isotropic =    28.3428   Anisotropy =     8.9990

     17  H    Isotropic =    27.1036   Anisotropy =     7.1959

     18  H    Isotropic =    27.7612   Anisotropy =     9.0277

     19  O    Isotropic =   306.5769   Anisotropy =    82.4886

     20  H    Isotropic =    26.2957   Anisotropy =    26.8546

     21  O    Isotropic =   304.2349   Anisotropy =    27.1757

     22  H    Isotropic =    28.6705   Anisotropy =    13.5786

     23  C    Isotropic =   138.2650   Anisotropy =    71.1049

     24  H    Isotropic =    27.7853   Anisotropy =     7.5997

     25  H    Isotropic =    27.4696   Anisotropy =     8.0738

     26  O    Isotropic =   307.2322   Anisotropy =    78.0097

     27  H    Isotropic =    29.6735   Anisotropy =    22.2091

 The electronic state is 1-A.
 Alpha  occ. eigenvalues --  -19.27492 -19.25646 -19.24751 -14.40819 -10.30367
 Alpha  occ. eigenvalues --  -10.30152 -10.30067 -10.28316 -10.27529 -10.26572
 Alpha  occ. eigenvalues --  -10.24490 -10.24311  -1.08146  -1.06658  -1.04124
 Alpha  occ. eigenvalues --   -0.95961  -0.82750  -0.78842  -0.75308  -0.71351
 Alpha  occ. eigenvalues --   -0.67858  -0.60883  -0.60076  -0.57381  -0.56877
 Alpha  occ. eigenvalues --   -0.53284  -0.51856  -0.50495  -0.48488  -0.47894
 Alpha  occ. eigenvalues --   -0.47074  -0.45155  -0.42186  -0.41144  -0.40928
 Alpha  occ. eigenvalues --   -0.40008  -0.39108  -0.37865  -0.36123  -0.35331
 Alpha  occ. eigenvalues --   -0.34806  -0.34007  -0.33631  -0.31606  -0.30090
 Alpha  occ. eigenvalues --   -0.28723  -0.22060
 Alpha virt. eigenvalues --   -0.00009   0.01430   0.02121   0.02394   0.04240
 Alpha virt. eigenvalues --    0.04479   0.04593   0.04857   0.05221   0.07205
 Alpha virt. eigenvalues --    0.08061   0.08372   0.08691   0.09036   0.10030

 Mulliken atomic charges:
              1
     1  C   -0.315161
     2  C   -0.178607
     3  N   -0.146569
     4  C   -0.188522
     5  C   -0.464247
     6  C    0.164196
     7  C   -0.436637
     8  C    0.277834
     9  H    0.171775
    10  H    0.169624
    11  H    0.162686
    12  H    0.156194
    13  H    0.159708
    14  H    0.176000
    15  H    0.174661
    16  H    0.168563
    17  H    0.185698
    18  H    0.166592
    19  O   -0.652172
    20  H    0.438116
    21  O   -0.509132
    22  H    0.380243
    23  C   -0.148250
    24  H    0.184525
    25  H    0.168156
    26  O   -0.699297
    27  H    0.434024
 Sum of Mulliken atomic charges =   0.00000

 Dipole moment (field-independent basis, Debye):
    X=             -1.2274    Y=              3.2197    Z=              1.1006  Tot=              3.6173
 Quadrupole moment (field-independent basis, Debye-Ang):
   XX=            -77.6595   YY=            -68.0588   ZZ=            -72.9466
   XY=              6.4098   XZ=              3.7979   YZ=              7.3087

 Normal termination of Gaussian 09 at Fri May 17 12:59:11 2024.
