 Gaussian 09, Revision C.01,
 Gaussian 09:  AM64L-G09RevC.01 23-Sep-2011

 ------------------------------------------------
 # mpw1pw91/6-31+G** nmr scrf=(pcm,solvent=water)
 ------------------------------------------------

 99/9=1/99;
 -------
 comment
 -------
 Charge =  0 Multiplicity = 1

                         Standard orientation:
 ---------------------------------------------------------------------
 Center     Atomic      Atomic             Coordinates (Angstroms)
 Number     Number       Type             X           Y           Z
 ---------------------------------------------------------------------
      1          6           0       -2.469104   -0.664645    0.358242
      2          6           0       -1.258059   -0.782287   -0.579518
      3          7           0       -0.768286    0.618620   -0.799004
      4          6           0       -1.566852    1.529457    0.044597
      5          6           0       -2.905502    0.800000    0.183653
      6          6           0        0.707657    0.655211   -0.731468
      7          6           0        1.111360   -0.849299   -0.811340
      8          6           0       -0.044898   -1.592362   -0.119983
      9          1           0       -3.256930   -1.382713    0.111926
     10          1           0       -2.163735   -0.837935    1.394704
     11          1           0       -1.574285   -1.203113   -1.544461
     12          1           0       -1.669341    2.515490   -0.424470
     13          1           0       -1.137443    1.686060    1.045223
     14          1           0       -3.501521    0.919080   -0.729067
     15          1           0       -3.496452    1.175567    1.024834
     16          1           0        1.112234    1.176826   -1.610339
     17          1           0        1.139153   -1.149218   -1.867094
     18          1           0       -0.107688   -2.639318   -0.446763
     19          8           0        0.139803   -1.539628    1.296497
     20          1           0        1.111308   -1.564401    1.407688
     21          8           0        2.350251   -1.188364   -0.188720
     22          1           0        2.805189   -0.340518    0.019829
     23          6           0        1.299112    1.381501    0.485655
     24          1           0        0.917322    2.406965    0.544613
     25          1           0        1.058873    0.863273    1.418695
     26          8           0        2.729994    1.418151    0.284167
     27          1           0        3.138655    1.656886    1.133123
 ---------------------------------------------------------------------

 SCF Done:  E(RmPW1PW91) =  -594.193258131     A.U. after   13 cycles

      1  C    Isotropic =   170.1137   Anisotropy =    18.5214

      2  C    Isotropic =   127.7522   Anisotropy =    50.9402

      3  N    Isotropic =   202.2362   Anisotropy =    87.0875

      4  C    Isotropic =   146.8896   Anisotropy =    40.0948

      5  C    Isotropic =   164.8302   Anisotropy =    23.0571

      6  C    Isotropic =   136.7831   Anisotropy =    48.2300

      7  C    Isotropic =   114.7429   Anisotropy =    57.1266

      8  C    Isotropic =   122.8940   Anisotropy =    30.5202

      9  H    Isotropic =    29.9055   Anisotropy =    11.5821

     10  H    Isotropic =    29.4317   Anisotropy =     7.0309

     11  H    Isotropic =    27.9701   Anisotropy =     9.2295

     12  H    Isotropic =    28.7820   Anisotropy =    10.3917

     13  H    Isotropic =    28.8734   Anisotropy =     7.4933

     14  H    Isotropic =    29.6283   Anisotropy =    11.0554

     15  H    Isotropic =    29.6141   Anisotropy =    11.5483

     16  H    Isotropic =    28.0087   Anisotropy =     7.4539

     17  H    Isotropic =    26.8944   Anisotropy =     6.3494

     18  H    Isotropic =    27.7866   Anisotropy =     9.3595

     19  O    Isotropic =   306.4358   Anisotropy =    39.7637

     20  H    Isotropic =    28.1887   Anisotropy =    17.4850

     21  O    Isotropic =   309.9057   Anisotropy =    41.2932

     22  H    Isotropic =    25.2464   Anisotropy =    27.2187

     23  C    Isotropic =   130.3045   Anisotropy =    60.9429

     24  H    Isotropic =    27.3532   Anisotropy =     5.9890

     25  H    Isotropic =    27.1328   Anisotropy =     4.3437

     26  O    Isotropic =   312.9230   Anisotropy =    73.9976

     27  H    Isotropic =    29.8236   Anisotropy =    20.7584

 The electronic state is 1-A.
 Alpha  occ. eigenvalues --  -19.27593 -19.25408 -19.24886 -14.41092 -10.30628
 Alpha  occ. eigenvalues --  -10.30316 -10.29766 -10.28724 -10.27652 -10.26942
 Alpha  occ. eigenvalues --  -10.24552 -10.24341  -1.08293  -1.06590  -1.04013
 Alpha  occ. eigenvalues --   -0.96162  -0.82817  -0.79277  -0.75207  -0.71505
 Alpha  occ. eigenvalues --   -0.67428  -0.61047  -0.60064  -0.57938  -0.55257
 Alpha  occ. eigenvalues --   -0.54423  -0.52006  -0.50359  -0.49841  -0.48170
 Alpha  occ. eigenvalues --   -0.46216  -0.44442  -0.43305  -0.41868  -0.40456
 Alpha  occ. eigenvalues --   -0.39595  -0.38644  -0.37595  -0.36818  -0.35769
 Alpha  occ. eigenvalues --   -0.34902  -0.34640  -0.33687  -0.31593  -0.29632
 Alpha  occ. eigenvalues --   -0.28650  -0.22371
 Alpha virt. eigenvalues --    0.00119   0.01128   0.02085   0.02587   0.03789
 Alpha virt. eigenvalues --    0.04415   0.04664   0.05085   0.05563   0.07274
 Alpha virt. eigenvalues --    0.07914   0.08684   0.09029   0.09313   0.09670

 Mulliken atomic charges:
              1
     1  C   -0.557099
     2  C    0.149062
     3  N   -0.103619
     4  C   -0.227602
     5  C   -0.331247
     6  C   -0.357734
     7  C   -0.033734
     8  C    0.070621
     9  H    0.172281
    10  H    0.187362
    11  H    0.163694
    12  H    0.164968
    13  H    0.152429
    14  H    0.177327
    15  H    0.175099
    16  H    0.173764
    17  H    0.175664
    18  H    0.156967
    19  O   -0.581102
    20  H    0.391829
    21  O   -0.625983
    22  H    0.429236
    23  C   -0.086615
    24  H    0.178391
    25  H    0.195657
    26  O   -0.622826
    27  H    0.413211
 Sum of Mulliken atomic charges =   0.00000

 Dipole moment (field-independent basis, Debye):
    X=             -0.2059    Y=              2.6901    Z=              1.4600  Tot=              3.0677
 Quadrupole moment (field-independent basis, Debye-Ang):
   XX=            -70.9368   YY=            -73.5354   ZZ=            -72.9917
   XY=              5.0930   XZ=              6.9454   YZ=              7.8375

 Normal termination of Gaussian 09 at Fri May 17 12:53:58 2024.
