 Gaussian 09, Revision C.01,
 Gaussian 09:  AM64L-G09RevC.01 23-Sep-2011

 ------------------------------------------------
 # mpw1pw91/6-31+G** nmr scrf=(pcm,solvent=water)
 ------------------------------------------------

 99/9=1/99;
 -------
 comment
 -------
 Charge =  0 Multiplicity = 1

                         Standard orientation:
 ---------------------------------------------------------------------
 Center     Atomic      Atomic             Coordinates (Angstroms)
 Number     Number       Type             X           Y           Z
 ---------------------------------------------------------------------
      1          6           0       -2.161951    0.733919    0.356987
      2          6           0       -1.372958    0.133825   -0.841638
      3          7           0       -0.117973    0.938867   -1.001100
      4          6           0       -0.298839    2.143380   -0.160576
      5          6           0       -1.202601    1.744131    1.011132
      6          6           0        1.046322    0.041489   -0.722146
      7          6           0        0.495243   -1.239377   -0.076294
      8          6           0       -0.900377   -1.340654   -0.699624
      9          1           0       -3.054089    1.247229   -0.018168
     10          1           0       -2.506120   -0.039672    1.048868
     11          1           0       -1.985317    0.215210   -1.746420
     12          1           0       -0.806630    2.909129   -0.763505
     13          1           0        0.659431    2.569709    0.140040
     14          1           0       -1.725277    2.601086    1.449420
     15          1           0       -0.613805    1.266036    1.799812
     16          1           0        1.462538   -0.272322   -1.693195
     17          1           0        1.116929   -2.109763   -0.307526
     18          1           0       -0.799876   -1.770088   -1.701548
     19          8           0       -1.773502   -2.199175    0.022179
     20          1           0       -1.516709   -2.099374    0.957570
     21          8           0        0.309248   -1.150175    1.343766
     22          1           0        1.168987   -1.317232    1.763566
     23          6           0        2.209569    0.664247    0.051576
     24          1           0        2.571485    1.566305   -0.458826
     25          1           0        1.910258    0.943476    1.064652
     26          8           0        3.274455   -0.280562    0.213298
     27          1           0        3.575948   -0.528271   -0.677497
 ---------------------------------------------------------------------

 SCF Done:  E(RmPW1PW91) =  -594.188479225     A.U. after   13 cycles

      1  C    Isotropic =   169.1090   Anisotropy =    26.5220

      2  C    Isotropic =   125.8339   Anisotropy =    64.5841

      3  N    Isotropic =   196.7369   Anisotropy =    79.0649

      4  C    Isotropic =   144.4000   Anisotropy =    49.5355

      5  C    Isotropic =   168.9374   Anisotropy =    19.0183

      6  C    Isotropic =   127.8431   Anisotropy =    46.1816

      7  C    Isotropic =   121.2519   Anisotropy =    27.6958

      8  C    Isotropic =   121.4617   Anisotropy =    53.3754

      9  H    Isotropic =    30.1004   Anisotropy =    12.6731

     10  H    Isotropic =    29.6185   Anisotropy =     7.0805

     11  H    Isotropic =    27.9287   Anisotropy =     9.3755

     12  H    Isotropic =    28.9128   Anisotropy =    12.3982

     13  H    Isotropic =    28.7689   Anisotropy =     7.5329

     14  H    Isotropic =    30.2085   Anisotropy =    12.3939

     15  H    Isotropic =    29.7942   Anisotropy =     7.2364

     16  H    Isotropic =    28.4477   Anisotropy =     8.1914

     17  H    Isotropic =    27.5582   Anisotropy =     7.5070

     18  H    Isotropic =    27.2230   Anisotropy =     7.0691

     19  O    Isotropic =   310.8336   Anisotropy =    34.4058

     20  H    Isotropic =    28.4795   Anisotropy =    14.3917

     21  O    Isotropic =   313.9224   Anisotropy =    47.1949

     22  H    Isotropic =    29.6328   Anisotropy =    20.5191

     23  C    Isotropic =   135.6331   Anisotropy =    67.1526

     24  H    Isotropic =    27.5455   Anisotropy =     5.7915

     25  H    Isotropic =    27.8138   Anisotropy =     4.6096

     26  O    Isotropic =   311.3950   Anisotropy =    60.6267

     27  H    Isotropic =    30.7076   Anisotropy =    18.0065

 The electronic state is 1-A.
 Alpha  occ. eigenvalues --  -19.26454 -19.26189 -19.25478 -14.41227 -10.30421
 Alpha  occ. eigenvalues --  -10.30288 -10.30176 -10.28328 -10.27380 -10.26692
 Alpha  occ. eigenvalues --  -10.24059 -10.23742  -1.07969  -1.06240  -1.04879
 Alpha  occ. eigenvalues --   -0.95872  -0.82223  -0.78702  -0.75441  -0.71587
 Alpha  occ. eigenvalues --   -0.67337  -0.62267  -0.59619  -0.57791  -0.55864
 Alpha  occ. eigenvalues --   -0.52897  -0.52221  -0.50077  -0.49141  -0.47203
 Alpha  occ. eigenvalues --   -0.45610  -0.44502  -0.44117  -0.42031  -0.41210
 Alpha  occ. eigenvalues --   -0.39811  -0.38087  -0.36849  -0.36182  -0.35335
 Alpha  occ. eigenvalues --   -0.34954  -0.34113  -0.32814  -0.31804  -0.29642
 Alpha  occ. eigenvalues --   -0.29283  -0.22641
 Alpha virt. eigenvalues --   -0.00308   0.01529   0.01783   0.02246   0.03866
 Alpha virt. eigenvalues --    0.04222   0.04825   0.04911   0.05029   0.07080
 Alpha virt. eigenvalues --    0.07904   0.08080   0.08793   0.08910   0.09845

 Mulliken atomic charges:
              1
     1  C   -0.485986
     2  C    0.207843
     3  N   -0.090046
     4  C   -0.247423
     5  C   -0.262836
     6  C   -0.402040
     7  C    0.343220
     8  C   -0.336569
     9  H    0.171016
    10  H    0.164861
    11  H    0.161470
    12  H    0.162475
    13  H    0.157971
    14  H    0.165309
    15  H    0.181009
    16  H    0.170162
    17  H    0.174874
    18  H    0.179407
    19  O   -0.536184
    20  H    0.383895
    21  O   -0.648222
    22  H    0.404250
    23  C   -0.204912
    24  H    0.176689
    25  H    0.182789
    26  O   -0.552706
    27  H    0.379684
 Sum of Mulliken atomic charges =   0.00000

 Dipole moment (field-independent basis, Debye):
    X=              2.5951    Y=              1.2616    Z=             -0.3248  Tot=              2.9037
 Quadrupole moment (field-independent basis, Debye-Ang):
   XX=            -76.2162   YY=            -75.3806   ZZ=            -71.6076
   XY=             -6.8818   XZ=             -5.3631   YZ=              1.7532

 Normal termination of Gaussian 09 at Fri May 17 13:05:00 2024.
