 Gaussian 09, Revision C.01,
 Gaussian 09:  EM64L-G09RevC.01 23-Sep-2011

 -----------------------------------------------------
 # mPW1PW91/6-31+G** scrf=(PCM,solvent=chloroform) nmr
 -----------------------------------------------------

 99/9=1/99;
 -------
 comment
 -------
 Charge =  0 Multiplicity = 1

                         Standard orientation:
 ---------------------------------------------------------------------
 Center     Atomic      Atomic             Coordinates (Angstroms)
 Number     Number       Type             X           Y           Z
 ---------------------------------------------------------------------
      1          6           0       -0.397120    1.367775   -1.155147
      2          6           0        1.533622    0.136570   -0.065899
      3          6           0       -0.755700   -0.166344    0.904960
      4          6           0        0.598822   -0.888361    0.615255
      5          6           0       -1.335038    0.560353   -0.287482
      6          6           0        0.969746    0.705188   -1.363931
      7          1           0       -1.450784   -0.926774    1.258921
      8          1           0        1.665390    1.426779   -1.798131
      9          1           0       -0.864434    1.556355   -2.122382
     10          1           0        1.773386    0.937779    0.634446
     11          1           0        0.846031   -0.101181   -2.095902
     12         17           0       -0.155447    3.069290   -0.465765
     13         35           0        3.320722   -0.654588   -0.481153
     14          6           0        0.267515   -2.084459   -0.309845
     15          1           0       -0.344239   -1.805102   -1.172741
     16          1           0       -0.285003   -2.846830    0.249396
     17          1           0        1.194483   -2.534213   -0.676636
     18          6           0        1.215904   -1.435241    1.914239
     19          1           0        2.064671   -2.081994    1.678374
     20          1           0        0.477370   -2.024872    2.469102
     21          1           0        1.567898   -0.633061    2.567451
     22         17           0       -0.646113    0.999769    2.338655
     23          6           0       -2.632970    0.490048   -0.632322
     24          1           0       -2.953644    1.009370   -1.534183
     25          6           0       -3.725755   -0.214304    0.098106
     26          1           0       -3.448108   -0.554182    1.094260
     27          1           0       -4.610923    0.419653    0.176783
     28         17           0       -4.274412   -1.701914   -0.825598
 ---------------------------------------------------------------------

 SCF Done:  E(RmPW1PW91) =  -4341.95069880     A.U. after   14 cycles

      1  C    Isotropic =   128.0837   Anisotropy =    29.7424

      2  C    Isotropic =   127.3800   Anisotropy =    63.3236

      3  C    Isotropic =   126.7054   Anisotropy =    46.5060

      4  C    Isotropic =   150.6021   Anisotropy =    16.8232

      5  C    Isotropic =    56.2102   Anisotropy =   152.9513

      6  C    Isotropic =   152.5920   Anisotropy =    41.7176

      7  H    Isotropic =    26.6681   Anisotropy =     7.6073

      8  H    Isotropic =    29.1081   Anisotropy =     6.6413

      9  H    Isotropic =    26.7911   Anisotropy =     7.0838

     10  H    Isotropic =    26.3647   Anisotropy =     8.6249

     11  H    Isotropic =    29.0033   Anisotropy =     4.3032

     12  Cl   Isotropic =   708.9561   Anisotropy =   523.9327

     13  Br   Isotropic =  2449.7385   Anisotropy =  1045.1841

     14  C    Isotropic =   174.8613   Anisotropy =    31.9281

     15  H    Isotropic =    30.6489   Anisotropy =     7.7210

     16  H    Isotropic =    30.8828   Anisotropy =     9.6264

     17  H    Isotropic =    29.9598   Anisotropy =     7.7384

     18  C    Isotropic =   167.8980   Anisotropy =    34.2152

     19  H    Isotropic =    29.9856   Anisotropy =     7.4182

     20  H    Isotropic =    30.7362   Anisotropy =    10.2592

     21  H    Isotropic =    30.1310   Anisotropy =     7.7927

     22  Cl   Isotropic =   772.7578   Anisotropy =   429.7586

     23  C    Isotropic =    61.6732   Anisotropy =   131.0373

     24  H    Isotropic =    25.2621   Anisotropy =     7.5021

     25  C    Isotropic =   150.4190   Anisotropy =    49.0126

     26  H    Isotropic =    27.3072   Anisotropy =     8.0954

     27  H    Isotropic =    27.4569   Anisotropy =     9.3277

     28  Cl   Isotropic =   828.1297   Anisotropy =   407.7103

 The electronic state is 1-A.
 Alpha  occ. eigenvalues -- -483.41540-101.76492-101.76115-101.75861 -62.05523
 Alpha  occ. eigenvalues --  -56.54091 -56.53752 -56.53734 -10.34088 -10.33997
 Alpha  occ. eigenvalues --  -10.32901 -10.32585 -10.30416 -10.30192 -10.29369
 Alpha  occ. eigenvalues --  -10.27920 -10.25145 -10.24595  -9.54283  -9.53825
 Alpha  occ. eigenvalues --   -9.53614  -8.67379  -7.28262  -7.27797  -7.27581
 Alpha  occ. eigenvalues --   -7.27311  -7.27294  -7.26869  -7.26847  -7.26649
 Alpha  occ. eigenvalues --   -7.26638  -6.60857  -6.59695  -6.59683  -2.69592
 Alpha  occ. eigenvalues --   -2.69264  -2.69254  -2.68309  -2.68308  -0.93910
 Alpha  occ. eigenvalues --   -0.89605  -0.88680  -0.86565  -0.83026  -0.80966
 Alpha  occ. eigenvalues --   -0.78105  -0.73867  -0.72161  -0.71328  -0.67462
 Alpha  occ. eigenvalues --   -0.64141  -0.59814  -0.55425  -0.53664  -0.50622
 Alpha  occ. eigenvalues --   -0.49951  -0.48885  -0.47846  -0.46281  -0.45397
 Alpha  occ. eigenvalues --   -0.45076  -0.44089  -0.42731  -0.42278  -0.40587
 Alpha  occ. eigenvalues --   -0.39840  -0.39362  -0.38648  -0.37061  -0.36314
 Alpha  occ. eigenvalues --   -0.35754  -0.34000  -0.33298  -0.32563  -0.32288
 Alpha  occ. eigenvalues --   -0.32099  -0.30691  -0.29861  -0.29721  -0.29302
 Alpha virt. eigenvalues --   -0.06556  -0.02206  -0.00018   0.00028   0.00701
 Alpha virt. eigenvalues --    0.01530   0.01739   0.02808   0.03384   0.03786
 Alpha virt. eigenvalues --    0.03879   0.04986   0.05470   0.05785   0.06215

 Mulliken atomic charges:
              1
     1  C    0.090880
     2  C   -0.404983
     3  C   -0.385814
     4  C    0.317842
     5  C   -0.412851
     6  C   -0.384594
     7  H    0.211333
     8  H    0.211564
     9  H    0.230387
    10  H    0.243095
    11  H    0.215959
    12  Cl  -0.109694
    13  Br  -0.123708
    14  C   -0.601606
    15  H    0.185753
    16  H    0.183991
    17  H    0.196945
    18  C   -0.405007
    19  H    0.189502
    20  H    0.178785
    21  H    0.191346
    22  Cl  -0.087080
    23  C    0.108489
    24  H    0.189274
    25  C   -0.398571
    26  H    0.221336
    27  H    0.244251
    28  Cl  -0.096823
 Sum of Mulliken atomic charges =   0.00000

 Dipole moment (field-independent basis, Debye):
    X=             -1.9171    Y=             -1.3587    Z=             -1.1151  Tot=              2.6009
 Quadrupole moment (field-independent basis, Debye-Ang):
   XX=           -125.6435   YY=           -127.8529   ZZ=           -118.3853
   XY=             -5.3719   XZ=             -1.0517   YZ=             -6.0993

 Normal termination of Gaussian 09 at Fri May 20 10:26:53 2022.
