 Gaussian 09, Revision C.01,
 Gaussian 09:  EM64L-G09RevC.01 23-Sep-2011

 -----------------------------------------------------
 # mPW1PW91/6-31+G** scrf=(PCM,solvent=chloroform) nmr
 -----------------------------------------------------

 99/9=1/99;
 -------
 comment
 -------
 Charge =  0 Multiplicity = 1

                         Standard orientation:
 ---------------------------------------------------------------------
 Center     Atomic      Atomic             Coordinates (Angstroms)
 Number     Number       Type             X           Y           Z
 ---------------------------------------------------------------------
      1          6           0        0.782156   -1.214873   -0.070197
      2          6           0       -1.575087   -0.272813    0.157219
      3          6           0        0.330737    1.333479    0.070309
      4          6           0       -1.153891    1.121579   -0.358320
      5          6           0        1.259033    0.198763   -0.309833
      6          6           0       -0.709819   -1.408460   -0.379858
      7          1           0        0.686578    2.259311   -0.385187
      8          1           0       -1.043724   -2.365533    0.027178
      9          1           0        1.351498   -1.920299   -0.672944
     10          1           0       -1.581605   -0.274540    1.247779
     11          1           0       -0.821880   -1.468627   -1.468833
     12         17           0        1.138703   -1.759565    1.658816
     13         35           0       -3.471184   -0.692561   -0.312108
     14          6           0       -1.189279    1.210409   -1.902494
     15          1           0       -0.442836    0.573370   -2.386131
     16          1           0       -1.000051    2.241028   -2.221631
     17          1           0       -2.177994    0.916798   -2.266207
     18          6           0       -2.057795    2.229574    0.210831
     19          1           0       -3.052864    2.167486   -0.237391
     20          1           0       -1.638992    3.216681   -0.015750
     21          1           0       -2.165678    2.149889    1.295110
     22         17           0        0.488186    1.672232    1.882824
     23          6           0        2.434159    0.496783   -0.891417
     24          1           0        2.675020    1.546481   -1.052690
     25          6           0        3.499405   -0.447868   -1.343163
     26          1           0        3.700682   -0.340349   -2.412144
     27          1           0        3.290660   -1.493033   -1.120751
     28         17           0        5.078694   -0.056696   -0.512527
 ---------------------------------------------------------------------

 SCF Done:  E(RmPW1PW91) =  -4341.94950874     A.U. after   14 cycles

      1  C    Isotropic =   137.8830   Anisotropy =    46.0425

      2  C    Isotropic =   127.6005   Anisotropy =    62.6863

      3  C    Isotropic =   117.0586   Anisotropy =    25.4161

      4  C    Isotropic =   150.8753   Anisotropy =    16.1653

      5  C    Isotropic =    59.6341   Anisotropy =   148.3991

      6  C    Isotropic =   152.9113   Anisotropy =    43.5174

      7  H    Isotropic =    27.0843   Anisotropy =     5.5211

      8  H    Isotropic =    29.0702   Anisotropy =     6.3397

      9  H    Isotropic =    26.5162   Anisotropy =     7.6666

     10  H    Isotropic =    26.3766   Anisotropy =     8.8315

     11  H    Isotropic =    29.1091   Anisotropy =     4.4203

     12  Cl   Isotropic =   720.7784   Anisotropy =   511.7006

     13  Br   Isotropic =  2447.9614   Anisotropy =  1020.1293

     14  C    Isotropic =   174.5874   Anisotropy =    32.2135

     15  H    Isotropic =    30.7335   Anisotropy =     7.5706

     16  H    Isotropic =    30.9406   Anisotropy =    10.3630

     17  H    Isotropic =    30.0151   Anisotropy =     7.6376

     18  C    Isotropic =   167.7138   Anisotropy =    34.4226

     19  H    Isotropic =    30.0303   Anisotropy =     7.6056

     20  H    Isotropic =    30.7414   Anisotropy =    10.6469

     21  H    Isotropic =    30.1552   Anisotropy =     7.5561

     22  Cl   Isotropic =   772.1852   Anisotropy =   408.8883

     23  C    Isotropic =    61.6692   Anisotropy =   125.4489

     24  H    Isotropic =    25.4472   Anisotropy =     8.9006

     25  C    Isotropic =   150.3002   Anisotropy =    46.4349

     26  H    Isotropic =    27.4135   Anisotropy =     8.7779

     27  H    Isotropic =    27.3016   Anisotropy =     8.4975

     28  Cl   Isotropic =   838.9245   Anisotropy =   401.7425

 The electronic state is 1-A.
 Alpha  occ. eigenvalues -- -483.41560-101.76386-101.75947-101.75826 -62.05545
 Alpha  occ. eigenvalues --  -56.54115 -56.53775 -56.53759 -10.34153 -10.33851
 Alpha  occ. eigenvalues --  -10.32928 -10.32586 -10.30320 -10.30088 -10.29394
 Alpha  occ. eigenvalues --  -10.28055 -10.25238 -10.24564  -9.54188  -9.53691
 Alpha  occ. eigenvalues --   -9.53551  -8.67404  -7.28175  -7.27665  -7.27519
 Alpha  occ. eigenvalues --   -7.27212  -7.27190  -7.26724  -7.26711  -7.26591
 Alpha  occ. eigenvalues --   -7.26576  -6.60882  -6.59721  -6.59710  -2.69619
 Alpha  occ. eigenvalues --   -2.69288  -2.69279  -2.68336  -2.68336  -0.93859
 Alpha  occ. eigenvalues --   -0.89752  -0.88598  -0.86519  -0.83007  -0.80950
 Alpha  occ. eigenvalues --   -0.78076  -0.74094  -0.72047  -0.70923  -0.66850
 Alpha  occ. eigenvalues --   -0.65477  -0.58905  -0.55509  -0.54009  -0.51013
 Alpha  occ. eigenvalues --   -0.49430  -0.48590  -0.48193  -0.46876  -0.45126
 Alpha  occ. eigenvalues --   -0.44876  -0.44045  -0.43222  -0.41715  -0.40579
 Alpha  occ. eigenvalues --   -0.39846  -0.39494  -0.38644  -0.37132  -0.36248
 Alpha  occ. eigenvalues --   -0.35736  -0.33974  -0.33047  -0.32487  -0.32423
 Alpha  occ. eigenvalues --   -0.31835  -0.30568  -0.29843  -0.29740  -0.29232
 Alpha virt. eigenvalues --   -0.06177  -0.02229  -0.00536   0.00209   0.00967
 Alpha virt. eigenvalues --    0.01492   0.01954   0.02782   0.03442   0.03581
 Alpha virt. eigenvalues --    0.04282   0.04746   0.04965   0.05632   0.06350

 Mulliken atomic charges:
              1
     1  C    0.194248
     2  C   -0.338787
     3  C   -0.152379
     4  C    0.275369
     5  C   -0.527107
     6  C   -0.536923
     7  H    0.221796
     8  H    0.212134
     9  H    0.211226
    10  H    0.243105
    11  H    0.214908
    12  Cl  -0.132346
    13  Br  -0.125047
    14  C   -0.580195
    15  H    0.179949
    16  H    0.182984
    17  H    0.196643
    18  C   -0.398838
    19  H    0.188723
    20  H    0.179152
    21  H    0.191459
    22  Cl  -0.067667
    23  C    0.123433
    24  H    0.188147
    25  C   -0.507528
    26  H    0.243544
    27  H    0.215854
    28  Cl  -0.095859
 Sum of Mulliken atomic charges =   0.00000

 Dipole moment (field-independent basis, Debye):
    X=             -0.4780    Y=              0.5884    Z=             -5.4427  Tot=              5.4952
 Quadrupole moment (field-independent basis, Debye-Ang):
   XX=           -138.8939   YY=           -115.9673   ZZ=           -119.4141
   XY=             -3.1795   XZ=             -8.2065   YZ=              0.0201

 Normal termination of Gaussian 09 at Fri May 20 18:28:35 2022.
