 Gaussian 09, Revision C.01,
 Gaussian 09:  EM64L-G09RevC.01 23-Sep-2011

 -----------------------------------------------------
 # mPW1PW91/6-31+G** scrf=(PCM,solvent=chloroform) nmr
 -----------------------------------------------------

 99/9=1/99;
 -------
 comment
 -------
 Charge =  0 Multiplicity = 1

                         Standard orientation:
 ---------------------------------------------------------------------
 Center     Atomic      Atomic             Coordinates (Angstroms)
 Number     Number       Type             X           Y           Z
 ---------------------------------------------------------------------
      1          6           0       -0.247585    1.612001   -0.779098
      2          6           0        1.779566    0.152391   -0.460376
      3          6           0       -0.445482   -0.821339   -0.824313
      4          6           0        0.927920   -1.104057   -0.113406
      5          6           0       -1.120434    0.446655   -0.318137
      6          6           0        1.143391    1.503644   -0.127702
      7          1           0       -0.229457   -0.670661   -1.887799
      8          1           0        1.039678    1.624731    0.954512
      9          1           0       -0.148604    1.582986   -1.869440
     10          1           0        2.035601    0.117069   -1.522771
     11          1           0        1.788020    2.309387   -0.488528
     12         17           0       -0.919402    3.267865   -0.446920
     13         35           0        3.571438    0.100175    0.419397
     14          6           0        1.600245   -2.345329   -0.728260
     15          1           0        1.639480   -2.276716   -1.822530
     16          1           0        1.057481   -3.256163   -0.467171
     17          1           0        2.625050   -2.433324   -0.357573
     18          6           0        0.742515   -1.298858    1.399865
     19          1           0        1.706959   -1.495690    1.874465
     20          1           0        0.087137   -2.154839    1.588069
     21          1           0        0.300596   -0.421458    1.880695
     22         17           0       -1.511175   -2.302964   -0.866989
     23          6           0       -2.195927    0.633167    0.459520
     24          1           0       -2.466092    1.666490    0.657934
     25          6           0       -3.098753   -0.344612    1.137223
     26          1           0       -2.808882   -1.383855    1.036117
     27          1           0       -3.189625   -0.089061    2.195629
     28         17           0       -4.801799   -0.213547    0.471414
 ---------------------------------------------------------------------

 SCF Done:  E(RmPW1PW91) =  -4341.94214576     A.U. after   14 cycles

      1  C    Isotropic =   127.8736   Anisotropy =    49.8523

      2  C    Isotropic =   124.5023   Anisotropy =    46.0047

      3  C    Isotropic =   120.1146   Anisotropy =    31.0998

      4  C    Isotropic =   145.9552   Anisotropy =    29.0322

      5  C    Isotropic =    60.0288   Anisotropy =   136.7395

      6  C    Isotropic =   148.9257   Anisotropy =    56.5311

      7  H    Isotropic =    27.2503   Anisotropy =     5.9732

      8  H    Isotropic =    29.3816   Anisotropy =     4.3623

      9  H    Isotropic =    27.2146   Anisotropy =     4.8706

     10  H    Isotropic =    27.3518   Anisotropy =     4.9433

     11  H    Isotropic =    28.9971   Anisotropy =     6.1072

     12  Cl   Isotropic =   810.8796   Anisotropy =   371.4069

     13  Br   Isotropic =  2355.2582   Anisotropy =  1158.1941

     14  C    Isotropic =   168.8040   Anisotropy =    39.3844

     15  H    Isotropic =    30.8233   Anisotropy =    10.1576

     16  H    Isotropic =    30.1549   Anisotropy =     8.5589

     17  H    Isotropic =    29.8661   Anisotropy =     7.1480

     18  C    Isotropic =   180.2881   Anisotropy =    22.8660

     19  H    Isotropic =    30.3497   Anisotropy =     7.9553

     20  H    Isotropic =    30.5289   Anisotropy =     8.2300

     21  H    Isotropic =    30.6178   Anisotropy =     6.9529

     22  Cl   Isotropic =   833.2672   Anisotropy =   332.8262

     23  C    Isotropic =    70.9395   Anisotropy =   135.5524

     24  H    Isotropic =    25.2134   Anisotropy =    11.3364

     25  C    Isotropic =   150.2192   Anisotropy =    50.0321

     26  H    Isotropic =    26.1899   Anisotropy =    11.5674

     27  H    Isotropic =    27.6000   Anisotropy =     7.9346

     28  Cl   Isotropic =   843.9509   Anisotropy =   400.7060

 The electronic state is 1-A.
 Alpha  occ. eigenvalues -- -483.41960-101.77007-101.76969-101.75657 -62.05947
 Alpha  occ. eigenvalues --  -56.54517 -56.54177 -56.54154 -10.34613 -10.34370
 Alpha  occ. eigenvalues --  -10.33433 -10.31832 -10.30548 -10.30379 -10.28273
 Alpha  occ. eigenvalues --  -10.28095 -10.24820 -10.24795  -9.54726  -9.54723
 Alpha  occ. eigenvalues --   -9.53454  -8.67809  -7.28709  -7.28698  -7.27757
 Alpha  occ. eigenvalues --   -7.27753  -7.27752  -7.27740  -7.27423  -7.26488
 Alpha  occ. eigenvalues --   -7.26469  -6.61304  -6.60119  -6.60102  -2.70035
 Alpha  occ. eigenvalues --   -2.69703  -2.69688  -2.68725  -2.68724  -0.94263
 Alpha  occ. eigenvalues --   -0.90014  -0.88793  -0.87107  -0.82630  -0.81064
 Alpha  occ. eigenvalues --   -0.78581  -0.74271  -0.72490  -0.70717  -0.67253
 Alpha  occ. eigenvalues --   -0.63800  -0.58921  -0.57075  -0.53063  -0.50628
 Alpha  occ. eigenvalues --   -0.50377  -0.48922  -0.47439  -0.46984  -0.45768
 Alpha  occ. eigenvalues --   -0.44711  -0.43509  -0.42632  -0.41947  -0.40586
 Alpha  occ. eigenvalues --   -0.40227  -0.39123  -0.38856  -0.38060  -0.36277
 Alpha  occ. eigenvalues --   -0.35877  -0.33584  -0.33190  -0.32873  -0.32621
 Alpha  occ. eigenvalues --   -0.31971  -0.31286  -0.30322  -0.30241  -0.28556
 Alpha virt. eigenvalues --   -0.04555  -0.03526  -0.00213   0.00510   0.01510
 Alpha virt. eigenvalues --    0.01610   0.02284   0.02605   0.03146   0.03645
 Alpha virt. eigenvalues --    0.04502   0.04785   0.05039   0.05786   0.06633

 Mulliken atomic charges:
              1
     1  C   -0.490302
     2  C   -0.422914
     3  C   -0.079616
     4  C    0.112726
     5  C    0.348910
     6  C   -0.364512
     7  H    0.238523
     8  H    0.221536
     9  H    0.244919
    10  H    0.224991
    11  H    0.213905
    12  Cl   0.052056
    13  Br  -0.118390
    14  C   -0.410045
    15  H    0.175412
    16  H    0.191834
    17  H    0.187583
    18  C   -0.613351
    19  H    0.189789
    20  H    0.187144
    21  H    0.180925
    22  Cl  -0.001357
    23  C   -0.184709
    24  H    0.183737
    25  C   -0.600109
    26  H    0.218196
    27  H    0.236715
    28  Cl  -0.123596
 Sum of Mulliken atomic charges =   0.00000

 Dipole moment (field-independent basis, Debye):
    X=              3.0272    Y=             -0.6610    Z=             -0.1911  Tot=              3.1044
 Quadrupole moment (field-independent basis, Debye-Ang):
   XX=           -144.4983   YY=           -125.0295   ZZ=           -113.0266
   XY=             -1.0848   XZ=             -6.0692   YZ=             -1.6737

 Normal termination of Gaussian 09 at Fri May 20 18:37:11 2022.
