 Gaussian 09, Revision C.01,
 Gaussian 09:  EM64L-G09RevC.01 23-Sep-2011

 -----------------------------------------------------
 # mPW1PW91/6-31+G** scrf=(PCM,solvent=chloroform) nmr
 -----------------------------------------------------

 99/9=1/99;
 -------
 comment
 -------
 Charge =  0 Multiplicity = 1

                         Standard orientation:
 ---------------------------------------------------------------------
 Center     Atomic      Atomic             Coordinates (Angstroms)
 Number     Number       Type             X           Y           Z
 ---------------------------------------------------------------------
      1          6           0       -0.282005    1.572540   -1.088772
      2          6           0        1.714349    0.198808   -0.405018
      3          6           0       -0.360783   -0.865610   -1.167627
      4          6           0        0.871682   -1.098709   -0.219765
      5          6           0       -1.168232    0.367185   -0.785843
      6          6           0        0.968250    1.517963   -0.191495
      7          1           0        0.035190   -0.699481   -2.175595
      8          1           0        0.659384    1.621698    0.852695
      9          1           0        0.017121    1.554119   -2.142139
     10          1           0        2.159977    0.184727   -1.403376
     11          1           0        1.632040    2.354521   -0.425066
     12         17           0       -1.077590    3.193945   -0.888822
     13         35           0        3.318552    0.217592    0.783570
     14          6           0        1.700767   -2.300987   -0.707027
     15          1           0        1.944146   -2.213018   -1.773297
     16          1           0        1.159566   -3.238079   -0.560142
     17          1           0        2.639355   -2.351682   -0.148869
     18          6           0        0.423671   -1.319222    1.233513
     19          1           0        1.296550   -1.452128    1.877475
     20          1           0       -0.191362   -2.221683    1.301412
     21          1           0       -0.163104   -0.482564    1.622784
     22         17           0       -1.345894   -2.388357   -1.402615
     23          6           0       -2.368410    0.494654   -0.205964
     24          1           0       -2.720201    1.510610   -0.050952
     25          6           0       -3.333259   -0.537156    0.288966
     26          1           0       -4.258223   -0.527365   -0.293234
     27          1           0       -2.942245   -1.546455    0.329948
     28         17           0       -3.836145   -0.116513    2.000708
 ---------------------------------------------------------------------

 SCF Done:  E(RmPW1PW91) =  -4341.94182893     A.U. after   14 cycles

      1  C    Isotropic =   128.3161   Anisotropy =    48.6813

      2  C    Isotropic =   124.4545   Anisotropy =    46.2058

      3  C    Isotropic =   119.3966   Anisotropy =    30.0968

      4  C    Isotropic =   145.9486   Anisotropy =    28.5049

      5  C    Isotropic =    60.7092   Anisotropy =   132.7189

      6  C    Isotropic =   148.5550   Anisotropy =    53.9454

      7  H    Isotropic =    27.2102   Anisotropy =     5.9652

      8  H    Isotropic =    29.3703   Anisotropy =     4.2848

      9  H    Isotropic =    27.2612   Anisotropy =     5.0337

     10  H    Isotropic =    27.3524   Anisotropy =     4.9979

     11  H    Isotropic =    28.9992   Anisotropy =     6.1711

     12  Cl   Isotropic =   814.7171   Anisotropy =   368.5881

     13  Br   Isotropic =  2356.7736   Anisotropy =  1147.6034

     14  C    Isotropic =   168.1666   Anisotropy =    41.0648

     15  H    Isotropic =    30.7857   Anisotropy =    10.4363

     16  H    Isotropic =    30.0893   Anisotropy =     8.4234

     17  H    Isotropic =    29.8164   Anisotropy =     7.0978

     18  C    Isotropic =   179.8907   Anisotropy =    24.6650

     19  H    Isotropic =    30.2357   Anisotropy =     7.6393

     20  H    Isotropic =    30.3152   Anisotropy =     7.9654

     21  H    Isotropic =    30.2895   Anisotropy =     8.1731

     22  Cl   Isotropic =   820.6851   Anisotropy =   328.6248

     23  C    Isotropic =    70.1896   Anisotropy =   130.3430

     24  H    Isotropic =    25.3350   Anisotropy =    11.2161

     25  C    Isotropic =   147.9691   Anisotropy =    50.3888

     26  H    Isotropic =    27.2686   Anisotropy =     8.3338

     27  H    Isotropic =    26.1371   Anisotropy =    14.5470

     28  Cl   Isotropic =   847.3150   Anisotropy =   403.8024

 The electronic state is 1-A.
 Alpha  occ. eigenvalues -- -483.41892-101.77095-101.76939-101.75812 -62.05881
 Alpha  occ. eigenvalues --  -56.54452 -56.54112 -56.54089 -10.34612 -10.34321
 Alpha  occ. eigenvalues --  -10.33386 -10.31967 -10.30486 -10.30202 -10.28192
 Alpha  occ. eigenvalues --  -10.28133 -10.24791 -10.24589  -9.54815  -9.54693
 Alpha  occ. eigenvalues --   -9.53611  -8.67745  -7.28794  -7.28669  -7.27846
 Alpha  occ. eigenvalues --   -7.27841  -7.27728  -7.27710  -7.27579  -7.26644
 Alpha  occ. eigenvalues --   -7.26628  -6.61240  -6.60055  -6.60037  -2.69974
 Alpha  occ. eigenvalues --   -2.69637  -2.69623  -2.68661  -2.68660  -0.94224
 Alpha  occ. eigenvalues --   -0.89979  -0.88929  -0.87124  -0.82608  -0.81019
 Alpha  occ. eigenvalues --   -0.78530  -0.74187  -0.72373  -0.70672  -0.67240
 Alpha  occ. eigenvalues --   -0.63753  -0.58915  -0.57088  -0.52887  -0.50483
 Alpha  occ. eigenvalues --   -0.50389  -0.49153  -0.47327  -0.46832  -0.46168
 Alpha  occ. eigenvalues --   -0.44711  -0.43607  -0.42319  -0.41909  -0.40457
 Alpha  occ. eigenvalues --   -0.40107  -0.39063  -0.38764  -0.38021  -0.36218
 Alpha  occ. eigenvalues --   -0.35772  -0.33507  -0.33187  -0.33105  -0.32634
 Alpha  occ. eigenvalues --   -0.32114  -0.31657  -0.30252  -0.30171  -0.28306
 Alpha virt. eigenvalues --   -0.04661  -0.03187  -0.00124   0.00756   0.01352
 Alpha virt. eigenvalues --    0.01812   0.02475   0.02595   0.02652   0.03739
 Alpha virt. eigenvalues --    0.04425   0.04885   0.05234   0.05702   0.06678

 Mulliken atomic charges:
              1
     1  C   -0.472784
     2  C   -0.415746
     3  C   -0.080935
     4  C    0.119769
     5  C    0.462018
     6  C   -0.368585
     7  H    0.237021
     8  H    0.223944
     9  H    0.242122
    10  H    0.223989
    11  H    0.213368
    12  Cl   0.063854
    13  Br  -0.121319
    14  C   -0.401980
    15  H    0.174390
    16  H    0.191165
    17  H    0.187789
    18  C   -0.638207
    19  H    0.188513
    20  H    0.187582
    21  H    0.187522
    22  Cl  -0.013320
    23  C   -0.250466
    24  H    0.189719
    25  C   -0.689841
    26  H    0.242034
    27  H    0.222393
    28  Cl  -0.104008
 Sum of Mulliken atomic charges =   0.00000

 Dipole moment (field-independent basis, Debye):
    X=              1.5168    Y=             -1.0249    Z=             -3.1027  Tot=              3.6025
 Quadrupole moment (field-independent basis, Debye-Ang):
   XX=           -129.3564   YY=           -124.8545   ZZ=           -120.9645
   XY=              1.0277   XZ=              2.2641   YZ=             -1.3339

 Normal termination of Gaussian 09 at Fri May 20 10:34:39 2022.
