 Gaussian 09, Revision C.01,
 Gaussian 09:  EM64L-G09RevC.01 23-Sep-2011

 -----------------------------------------------------
 # mPW1PW91/6-31+G** scrf=(PCM,solvent=chloroform) nmr
 -----------------------------------------------------

 99/9=1/99;
 -------
 comment
 -------
 Charge =  0 Multiplicity = 1

                         Standard orientation:
 ---------------------------------------------------------------------
 Center     Atomic      Atomic             Coordinates (Angstroms)
 Number     Number       Type             X           Y           Z
 ---------------------------------------------------------------------
      1          6           0       -0.246847   -1.173855    1.240947
      2          6           0        1.748660    0.468389    0.955037
      3          6           0       -0.491792    0.937617   -0.248575
      4          6           0        0.789392    1.546384    0.392417
      5          6           0       -1.139921   -0.134843    0.598944
      6          6           0        1.052690   -0.592745    1.811367
      7          1           0       -1.186002    1.764203   -0.393873
      8          1           0        1.748637   -1.398764    2.054304
      9          1           0       -0.792923   -1.655736    2.052891
     10          1           0        2.504910    0.968600    1.561530
     11          1           0        0.782977   -0.113804    2.763787
     12         17           0        0.084316   -2.575161    0.090813
     13         35           0        2.884243   -0.414315   -0.435049
     14          6           0        0.293484    2.389824    1.604219
     15          1           0       -0.324782    1.817840    2.301659
     16          1           0       -0.304659    3.235755    1.247850
     17          1           0        1.145907    2.799391    2.157154
     18          6           0        1.505395    2.508792   -0.568895
     19          1           0        2.324877    3.015521   -0.046032
     20          1           0        0.809221    3.275207   -0.928157
     21          1           0        1.921310    1.987451   -1.430473
     22         17           0       -0.247955    0.315658   -1.964396
     23          6           0       -2.458024   -0.176744    0.862507
     24          1           0       -2.826058   -0.976078    1.504241
     25          6           0       -3.526957    0.739719    0.364193
     26          1           0       -4.044969    1.234233    1.190105
     27          1           0       -3.176304    1.492321   -0.339997
     28         17           0       -4.817956   -0.212282   -0.511195
 ---------------------------------------------------------------------

 SCF Done:  E(RmPW1PW91) =  -4341.94269525     A.U. after   14 cycles

      1  C    Isotropic =   132.3081   Anisotropy =    36.2958

      2  C    Isotropic =   130.3247   Anisotropy =    53.3340

      3  C    Isotropic =   131.2213   Anisotropy =    49.1102

      4  C    Isotropic =   152.7951   Anisotropy =     5.5846

      5  C    Isotropic =    58.4149   Anisotropy =   151.5705

      6  C    Isotropic =   155.8220   Anisotropy =     6.0789

      7  H    Isotropic =    26.9980   Anisotropy =     7.5337

      8  H    Isotropic =    28.9466   Anisotropy =     7.8773

      9  H    Isotropic =    26.9000   Anisotropy =     8.2942

     10  H    Isotropic =    27.1937   Anisotropy =     8.4751

     11  H    Isotropic =    28.8481   Anisotropy =     8.7190

     12  Cl   Isotropic =   716.7645   Anisotropy =   486.8098

     13  Br   Isotropic =  2458.0268   Anisotropy =   943.2599

     14  C    Isotropic =   166.5045   Anisotropy =    44.0125

     15  H    Isotropic =    30.6303   Anisotropy =     7.3566

     16  H    Isotropic =    30.6475   Anisotropy =    10.0225

     17  H    Isotropic =    30.7626   Anisotropy =    10.8221

     18  C    Isotropic =   165.9642   Anisotropy =    35.0789

     19  H    Isotropic =    30.4313   Anisotropy =    10.3185

     20  H    Isotropic =    30.6230   Anisotropy =    10.3785

     21  H    Isotropic =    29.3254   Anisotropy =     4.3625

     22  Cl   Isotropic =   772.3132   Anisotropy =   411.6895

     23  C    Isotropic =    62.5580   Anisotropy =   123.2501

     24  H    Isotropic =    25.3566   Anisotropy =     8.1020

     25  C    Isotropic =   150.4963   Anisotropy =    48.1984

     26  H    Isotropic =    27.4821   Anisotropy =     8.6924

     27  H    Isotropic =    27.2225   Anisotropy =     9.5698

     28  Cl   Isotropic =   842.6441   Anisotropy =   404.5478

 The electronic state is 1-A.
 Alpha  occ. eigenvalues -- -483.40712-101.76264-101.75497-101.75263 -62.04664
 Alpha  occ. eigenvalues --  -56.53201 -56.52852 -56.52835 -10.33563 -10.33519
 Alpha  occ. eigenvalues --  -10.32798 -10.32658 -10.30342 -10.30042 -10.29109
 Alpha  occ. eigenvalues --  -10.28073 -10.25995 -10.24631  -9.54065  -9.53203
 Alpha  occ. eigenvalues --   -9.53011  -8.66453  -7.28050  -7.27188  -7.27090
 Alpha  occ. eigenvalues --   -7.27068  -7.26989  -7.26237  -7.26221  -7.26046
 Alpha  occ. eigenvalues --   -7.26026  -6.59935  -6.58751  -6.58724  -2.68665
 Alpha  occ. eigenvalues --   -2.68335  -2.68314  -2.67350  -2.67348  -0.93474
 Alpha  occ. eigenvalues --   -0.89517  -0.88316  -0.86232  -0.82695  -0.80949
 Alpha  occ. eigenvalues --   -0.77733  -0.73711  -0.72314  -0.70606  -0.67740
 Alpha  occ. eigenvalues --   -0.63746  -0.59930  -0.55119  -0.53021  -0.50673
 Alpha  occ. eigenvalues --   -0.49914  -0.48556  -0.47529  -0.47032  -0.45402
 Alpha  occ. eigenvalues --   -0.44245  -0.43679  -0.42537  -0.42296  -0.41059
 Alpha  occ. eigenvalues --   -0.40300  -0.39593  -0.38198  -0.37557  -0.35952
 Alpha  occ. eigenvalues --   -0.35050  -0.33652  -0.32892  -0.32672  -0.32315
 Alpha  occ. eigenvalues --   -0.31851  -0.30241  -0.29010  -0.28525  -0.27812
 Alpha virt. eigenvalues --   -0.05817  -0.01515  -0.00504   0.00554   0.01021
 Alpha virt. eigenvalues --    0.01504   0.01876   0.02647   0.03296   0.03598
 Alpha virt. eigenvalues --    0.03966   0.04992   0.05265   0.05951   0.06348

 Mulliken atomic charges:
              1
     1  C   -0.165521
     2  C   -0.322953
     3  C   -0.118263
     4  C    0.211800
     5  C   -0.383715
     6  C   -0.211959
     7  H    0.194490
     8  H    0.209670
     9  H    0.224833
    10  H    0.215323
    11  H    0.207673
    12  Cl  -0.092905
    13  Br  -0.191292
    14  C   -0.576556
    15  H    0.188686
    16  H    0.187736
    17  H    0.190083
    18  C   -0.448409
    19  H    0.178853
    20  H    0.176679
    21  H    0.199719
    22  Cl  -0.117565
    23  C    0.148889
    24  H    0.189143
    25  C   -0.456841
    26  H    0.242896
    27  H    0.218179
    28  Cl  -0.098674
 Sum of Mulliken atomic charges =   0.00000

 Dipole moment (field-independent basis, Debye):
    X=             -0.4676    Y=              5.3169    Z=              6.5935  Tot=              8.4831
 Quadrupole moment (field-independent basis, Debye-Ang):
   XX=           -131.6291   YY=           -116.9092   ZZ=           -114.0101
   XY=             -2.0959   XZ=             -3.2770   YZ=              0.1896

 Normal termination of Gaussian 09 at Fri May 20 10:34:25 2022.
