 Gaussian 09, Revision C.01,
 Gaussian 09:  EM64L-G09RevC.01 23-Sep-2011

 -----------------------------------------------------
 # mPW1PW91/6-31+G** scrf=(PCM,solvent=chloroform) nmr
 -----------------------------------------------------

 99/9=1/99;
 -------
 comment
 -------
 Charge =  0 Multiplicity = 1

                         Standard orientation:
 ---------------------------------------------------------------------
 Center     Atomic      Atomic             Coordinates (Angstroms)
 Number     Number       Type             X           Y           Z
 ---------------------------------------------------------------------
      1          6           0       -0.144498    1.447518   -0.997472
      2          6           0        1.357102   -0.670427   -1.086656
      3          6           0       -0.628797   -0.571999    0.566084
      4          6           0        0.283197   -1.474524   -0.313918
      5          6           0       -1.118774    0.671430   -0.141379
      6          6           0        0.801879    0.557475   -1.811679
      7          1           0       -1.480088   -1.185875    0.857606
      8          1           0        1.616874    1.156186   -2.224511
      9          1           0       -0.705200    2.078637   -1.688175
     10          1           0        1.817048   -1.333807   -1.820300
     11          1           0        0.216480    0.189968   -2.666423
     12         17           0        0.785950    2.680380    0.011621
     13         35           0        2.938790   -0.155856    0.024384
     14          6           0       -0.659522   -2.113984   -1.376648
     15          1           0       -1.244959   -1.378515   -1.935031
     16          1           0       -1.367848   -2.789837   -0.886179
     17          1           0       -0.077562   -2.705804   -2.091659
     18          6           0        0.899445   -2.625958    0.497215
     19          1           0        1.421128   -3.315687   -0.176503
     20          1           0        0.114685   -3.189190    1.014556
     21          1           0        1.614310   -2.266971    1.237150
     22         17           0        0.108380   -0.112112    2.194029
     23          6           0       -2.395586    1.089584   -0.082235
     24          1           0       -2.677963    1.964770   -0.665489
     25          6           0       -3.500042    0.496682    0.725128
     26          1           0       -3.165159   -0.200244    1.491420
     27          1           0       -4.099829    1.276869    1.196644
     28         17           0       -4.671153   -0.431816   -0.344896
 ---------------------------------------------------------------------

 SCF Done:  E(RmPW1PW91) =  -4341.94416274     A.U. after   14 cycles

      1  C    Isotropic =   132.1940   Anisotropy =    36.7824

      2  C    Isotropic =   129.8474   Anisotropy =    54.0027

      3  C    Isotropic =   131.2765   Anisotropy =    49.6011

      4  C    Isotropic =   152.7907   Anisotropy =     5.3481

      5  C    Isotropic =    54.2943   Anisotropy =   157.0066

      6  C    Isotropic =   155.9741   Anisotropy =     5.2862

      7  H    Isotropic =    26.8476   Anisotropy =     8.4608

      8  H    Isotropic =    28.9404   Anisotropy =     8.0271

      9  H    Isotropic =    26.8461   Anisotropy =     8.1869

     10  H    Isotropic =    27.1647   Anisotropy =     8.3630

     11  H    Isotropic =    28.8223   Anisotropy =     8.4898

     12  Cl   Isotropic =   705.6488   Anisotropy =   497.9148

     13  Br   Isotropic =  2464.2456   Anisotropy =   953.0815

     14  C    Isotropic =   166.0560   Anisotropy =    43.4941

     15  H    Isotropic =    30.5292   Anisotropy =     7.1831

     16  H    Isotropic =    30.4883   Anisotropy =     9.6573

     17  H    Isotropic =    30.7254   Anisotropy =    10.6219

     18  C    Isotropic =   166.4428   Anisotropy =    34.7426

     19  H    Isotropic =    30.4512   Anisotropy =    10.2294

     20  H    Isotropic =    30.5658   Anisotropy =    10.2793

     21  H    Isotropic =    29.3096   Anisotropy =     4.6218

     22  Cl   Isotropic =   765.8074   Anisotropy =   429.7233

     23  C    Isotropic =    62.8802   Anisotropy =   129.6036

     24  H    Isotropic =    25.1968   Anisotropy =     7.5264

     25  C    Isotropic =   150.5830   Anisotropy =    51.4499

     26  H    Isotropic =    27.2627   Anisotropy =     8.1134

     27  H    Isotropic =    27.5086   Anisotropy =     9.2681

     28  Cl   Isotropic =   827.6310   Anisotropy =   414.9388

 The electronic state is 1-A.
 Alpha  occ. eigenvalues -- -483.40722-101.76392-101.75633-101.75385 -62.04674
 Alpha  occ. eigenvalues --  -56.53209 -56.52861 -56.52844 -10.33602 -10.33600
 Alpha  occ. eigenvalues --  -10.32742 -10.32635 -10.30298 -10.30147 -10.29056
 Alpha  occ. eigenvalues --  -10.28080 -10.25796 -10.24589  -9.54178  -9.53334
 Alpha  occ. eigenvalues --   -9.53133  -8.66461  -7.28153  -7.27316  -7.27207
 Alpha  occ. eigenvalues --   -7.27192  -7.27110  -7.26371  -7.26355  -7.26168
 Alpha  occ. eigenvalues --   -7.26148  -6.59942  -6.58759  -6.58732  -2.68674
 Alpha  occ. eigenvalues --   -2.68341  -2.68319  -2.67359  -2.67357  -0.93519
 Alpha  occ. eigenvalues --   -0.89389  -0.88381  -0.86252  -0.82708  -0.80933
 Alpha  occ. eigenvalues --   -0.77817  -0.73885  -0.72236  -0.70569  -0.67709
 Alpha  occ. eigenvalues --   -0.63825  -0.59870  -0.55139  -0.52992  -0.50640
 Alpha  occ. eigenvalues --   -0.49917  -0.48794  -0.47690  -0.45776  -0.45361
 Alpha  occ. eigenvalues --   -0.44523  -0.43947  -0.42573  -0.42457  -0.40951
 Alpha  occ. eigenvalues --   -0.40241  -0.39580  -0.38131  -0.37507  -0.35933
 Alpha  occ. eigenvalues --   -0.35087  -0.33671  -0.33220  -0.32642  -0.32379
 Alpha  occ. eigenvalues --   -0.32023  -0.30465  -0.29076  -0.28552  -0.27851
 Alpha virt. eigenvalues --   -0.06348  -0.01451  -0.00228   0.00379   0.00886
 Alpha virt. eigenvalues --    0.01585   0.01706   0.02992   0.03311   0.03525
 Alpha virt. eigenvalues --    0.03900   0.05272   0.05394   0.05841   0.06115

 Mulliken atomic charges:
              1
     1  C   -0.151829
     2  C   -0.306071
     3  C   -0.364404
     4  C    0.272315
     5  C   -0.349977
     6  C   -0.198543
     7  H    0.208230
     8  H    0.209924
     9  H    0.226739
    10  H    0.215642
    11  H    0.209709
    12  Cl  -0.097593
    13  Br  -0.191930
    14  C   -0.568240
    15  H    0.192671
    16  H    0.191290
    17  H    0.188717
    18  C   -0.460048
    19  H    0.178765
    20  H    0.177909
    21  H    0.199127
    22  Cl  -0.093403
    23  C    0.157365
    24  H    0.187348
    25  C   -0.401137
    26  H    0.225030
    27  H    0.242954
    28  Cl  -0.100559
 Sum of Mulliken atomic charges =   0.00000

 Dipole moment (field-independent basis, Debye):
    X=             -2.6400    Y=             -2.0306    Z=             -3.5253  Tot=              4.8499
 Quadrupole moment (field-independent basis, Debye-Ang):
   XX=           -132.4696   YY=           -117.6203   ZZ=           -114.9042
   XY=             -7.6630   XZ=             -6.4281   YZ=             -0.6102

 Normal termination of Gaussian 09 at Fri May 20 10:37:01 2022.
