 Gaussian 09, Revision C.01,
 Gaussian 09:  EM64L-G09RevC.01 23-Sep-2011

 -----------------------------------------------------
 # mPW1PW91/6-31+G** scrf=(PCM,solvent=chloroform) nmr
 -----------------------------------------------------

 99/9=1/99;
 -------
 comment
 -------
 Charge =  0 Multiplicity = 1

                         Standard orientation:
 ---------------------------------------------------------------------
 Center     Atomic      Atomic             Coordinates (Angstroms)
 Number     Number       Type             X           Y           Z
 ---------------------------------------------------------------------
      1          6           0        0.130702    1.469010   -0.031507
      2          6           0       -1.787441    0.140232    0.951408
      3          6           0        0.350111   -1.035677    0.098106
      4          6           0       -0.902244   -1.128391    1.021442
      5          6           0        1.070040    0.294434    0.174006
      6          6           0       -1.001033    1.453171    1.004156
      7          1           0        1.015345   -1.849441    0.380919
      8          1           0       -1.675511    2.294219    0.829915
      9          1           0       -0.302065    1.407198   -1.033549
     10          1           0       -2.513816    0.109262    1.764566
     11          1           0       -0.572059    1.577963    2.005837
     12         17           0        0.944841    3.095053    0.018465
     13         35           0       -2.978492    0.206047   -0.662537
     14          6           0       -0.348366   -1.206300    2.474616
     15          1           0        0.316527   -0.375268    2.724507
     16          1           0        0.214190   -2.136756    2.608926
     17          1           0       -1.173543   -1.214775    3.194799
     18          6           0       -1.706730   -2.413252    0.767286
     19          1           0       -2.505813   -2.506563    1.511809
     20          1           0       -1.057796   -3.291567    0.858008
     21          1           0       -2.161926   -2.420493   -0.222938
     22         17           0       -0.000045   -1.403761   -1.679133
     23          6           0        2.383352    0.419452    0.417176
     24          1           0        2.802489    1.420677    0.451039
     25          6           0        3.378219   -0.670081    0.643111
     26          1           0        3.909694   -0.528270    1.587194
     27          1           0        2.963428   -1.676481    0.618639
     28         17           0        4.678053   -0.629936   -0.645784
 ---------------------------------------------------------------------

 SCF Done:  E(RmPW1PW91) =  -4341.94815150     A.U. after   14 cycles

      1  C    Isotropic =   132.0416   Anisotropy =    58.8605

      2  C    Isotropic =   124.2040   Anisotropy =    49.8987

      3  C    Isotropic =   126.6256   Anisotropy =    45.3920

      4  C    Isotropic =   151.2978   Anisotropy =     2.0624

      5  C    Isotropic =    57.1410   Anisotropy =   144.9306

      6  C    Isotropic =   150.9361   Anisotropy =    30.9568

      7  H    Isotropic =    26.7503   Anisotropy =     7.5131

      8  H    Isotropic =    29.0438   Anisotropy =     6.9661

      9  H    Isotropic =    25.9720   Anisotropy =     9.0226

     10  H    Isotropic =    27.0812   Anisotropy =     7.5781

     11  H    Isotropic =    29.1636   Anisotropy =     5.7652

     12  Cl   Isotropic =   849.8122   Anisotropy =   321.7881

     13  Br   Isotropic =  2421.8775   Anisotropy =  1049.4947

     14  C    Isotropic =   167.3719   Anisotropy =    43.8427

     15  H    Isotropic =    30.4253   Anisotropy =     6.2506

     16  H    Isotropic =    30.6688   Anisotropy =     9.7843

     17  H    Isotropic =    30.6953   Anisotropy =    10.7835

     18  C    Isotropic =   167.2704   Anisotropy =    34.7120

     19  H    Isotropic =    30.5280   Anisotropy =    10.2334

     20  H    Isotropic =    30.6235   Anisotropy =    10.4710

     21  H    Isotropic =    29.4280   Anisotropy =     4.6222

     22  Cl   Isotropic =   775.5140   Anisotropy =   418.5003

     23  C    Isotropic =    71.8978   Anisotropy =   135.5429

     24  H    Isotropic =    25.2042   Anisotropy =    11.4325

     25  C    Isotropic =   150.1379   Anisotropy =    49.4277

     26  H    Isotropic =    27.4137   Anisotropy =     8.4940

     27  H    Isotropic =    27.2778   Anisotropy =     9.3901

     28  Cl   Isotropic =   833.0242   Anisotropy =   406.3730

 The electronic state is 1-A.
 Alpha  occ. eigenvalues -- -483.41323-101.76585-101.76010-101.75997 -62.05278
 Alpha  occ. eigenvalues --  -56.53826 -56.53485 -56.53474 -10.33971 -10.33606
 Alpha  occ. eigenvalues --  -10.33143 -10.32591 -10.30656 -10.30070 -10.28299
 Alpha  occ. eigenvalues --  -10.28090 -10.26083 -10.24875  -9.54336  -9.53812
 Alpha  occ. eigenvalues --   -9.53706  -8.67086  -7.28305  -7.27790  -7.27681
 Alpha  occ. eigenvalues --   -7.27373  -7.27360  -7.26840  -7.26821  -7.26747
 Alpha  occ. eigenvalues --   -7.26727  -6.60560  -6.59395  -6.59375  -2.69294
 Alpha  occ. eigenvalues --   -2.68965  -2.68949  -2.68002  -2.68002  -0.93940
 Alpha  occ. eigenvalues --   -0.89371  -0.89187  -0.86563  -0.82437  -0.81632
 Alpha  occ. eigenvalues --   -0.77914  -0.73873  -0.72388  -0.70206  -0.68061
 Alpha  occ. eigenvalues --   -0.64557  -0.59600  -0.55482  -0.53046  -0.51370
 Alpha  occ. eigenvalues --   -0.49760  -0.48619  -0.47646  -0.46752  -0.45909
 Alpha  occ. eigenvalues --   -0.45173  -0.43763  -0.42479  -0.41963  -0.41281
 Alpha  occ. eigenvalues --   -0.40339  -0.39533  -0.38527  -0.38036  -0.36091
 Alpha  occ. eigenvalues --   -0.35195  -0.33722  -0.33000  -0.32653  -0.32543
 Alpha  occ. eigenvalues --   -0.32060  -0.31660  -0.29891  -0.28884  -0.28434
 Alpha virt. eigenvalues --   -0.04573  -0.02000  -0.00628  -0.00056   0.00837
 Alpha virt. eigenvalues --    0.01412   0.02134   0.02622   0.03483   0.03788
 Alpha virt. eigenvalues --    0.03938   0.04682   0.05255   0.05626   0.06464

 Mulliken atomic charges:
              1
     1  C   -0.317975
     2  C   -0.419766
     3  C   -0.218972
     4  C    0.161616
     5  C    0.010735
     6  C   -0.267564
     7  H    0.197396
     8  H    0.214319
     9  H    0.264412
    10  H    0.220276
    11  H    0.210988
    12  Cl   0.009347
    13  Br  -0.178069
    14  C   -0.591932
    15  H    0.190385
    16  H    0.188779
    17  H    0.190473
    18  C   -0.423216
    19  H    0.180495
    20  H    0.178395
    21  H    0.199102
    22  Cl  -0.090224
    23  C    0.092511
    24  H    0.192347
    25  C   -0.524538
    26  H    0.240126
    27  H    0.211021
    28  Cl  -0.120466
 Sum of Mulliken atomic charges =   0.00000

 Dipole moment (field-independent basis, Debye):
    X=             -1.2465    Y=             -1.9670    Z=              6.2878  Tot=              6.7052
 Quadrupole moment (field-independent basis, Debye-Ang):
   XX=           -133.3468   YY=           -121.4659   ZZ=           -115.3083
   XY=             -1.0727   XZ=              3.1272   YZ=             -4.6658

 Normal termination of Gaussian 09 at Fri May 20 10:43:18 2022.
