 Gaussian 09, Revision C.01,
 Gaussian 09:  EM64L-G09RevC.01 23-Sep-2011

 -----------------------------------------------------
 # mPW1PW91/6-31+G** scrf=(PCM,solvent=chloroform) nmr
 -----------------------------------------------------

 99/9=1/99;
 -------
 comment
 -------
 Charge =  0 Multiplicity = 1

                         Standard orientation:
 ---------------------------------------------------------------------
 Center     Atomic      Atomic             Coordinates (Angstroms)
 Number     Number       Type             X           Y           Z
 ---------------------------------------------------------------------
      1          6           0        0.266436    1.825250   -0.517055
      2          6           0       -1.651753    0.251277    0.011618
      3          6           0        0.498720    0.022709    1.187614
      4          6           0       -0.709780   -0.820223    0.638484
      5          6           0        1.204869    0.812465    0.102016
      6          6           0       -1.008753    1.152257   -1.039310
      7          1           0        0.096683    0.749887    1.898161
      8          1           0       -0.725394    0.558728   -1.916516
      9          1           0        0.760802    2.361600   -1.326644
     10          1           0       -2.079889    0.860374    0.809637
     11          1           0       -1.723782    1.907675   -1.375142
     12         17           0       -0.173480    3.163735    0.689870
     13         35           0       -3.265914   -0.578519   -0.823702
     14          6           0       -1.446014   -1.505775    1.804755
     15          1           0       -1.706973   -0.783924    2.588381
     16          1           0       -0.828609   -2.286180    2.254512
     17          1           0       -2.371146   -1.962036    1.442884
     18          6           0       -0.239062   -1.870051   -0.380759
     19          1           0       -1.098335   -2.411401   -0.784519
     20          1           0        0.424654   -2.591351    0.105156
     21          1           0        0.307329   -1.425985   -1.218457
     22         17           0        1.602749   -0.980492    2.245251
     23          6           0        2.435790    0.723679   -0.428745
     24          1           0        2.681932    1.462723   -1.190200
     25          6           0        3.561368   -0.230004   -0.176606
     26          1           0        4.413063    0.276509    0.285068
     27          1           0        3.293881   -1.099565    0.411239
     28         17           0        4.182016   -0.861973   -1.780183
 ---------------------------------------------------------------------

 SCF Done:  E(RmPW1PW91) =  -4341.94565429     A.U. after   14 cycles

      1  C    Isotropic =   120.5382   Anisotropy =    31.5109

      2  C    Isotropic =   124.4927   Anisotropy =    54.4322

      3  C    Isotropic =   120.6021   Anisotropy =    36.9654

      4  C    Isotropic =   145.2568   Anisotropy =    28.9894

      5  C    Isotropic =    59.7214   Anisotropy =   139.0536

      6  C    Isotropic =   151.6814   Anisotropy =    42.7369

      7  H    Isotropic =    26.3771   Anisotropy =     8.8706

      8  H    Isotropic =    29.0615   Anisotropy =     4.2327

      9  H    Isotropic =    26.8543   Anisotropy =     6.5362

     10  H    Isotropic =    26.7599   Anisotropy =     7.3308

     11  H    Isotropic =    29.1343   Anisotropy =     6.9533

     12  Cl   Isotropic =   770.0873   Anisotropy =   454.2311

     13  Br   Isotropic =  2373.5895   Anisotropy =  1070.5004

     14  C    Isotropic =   168.1250   Anisotropy =    40.2370

     15  H    Isotropic =    30.6570   Anisotropy =     9.9100

     16  H    Isotropic =    30.1161   Anisotropy =     8.3187

     17  H    Isotropic =    29.8401   Anisotropy =     6.9128

     18  C    Isotropic =   180.8236   Anisotropy =    25.2711

     19  H    Isotropic =    30.2469   Anisotropy =     7.7161

     20  H    Isotropic =    30.3411   Anisotropy =     8.1715

     21  H    Isotropic =    30.4231   Anisotropy =     8.3779

     22  Cl   Isotropic =   842.9872   Anisotropy =   301.3494

     23  C    Isotropic =    65.2310   Anisotropy =   108.7101

     24  H    Isotropic =    25.6211   Anisotropy =     8.3137

     25  C    Isotropic =   148.3566   Anisotropy =    49.9385

     26  H    Isotropic =    27.3439   Anisotropy =     8.1128

     27  H    Isotropic =    26.1983   Anisotropy =    14.7240

     28  Cl   Isotropic =   846.7522   Anisotropy =   399.7334

 The electronic state is 1-A.
 Alpha  occ. eigenvalues -- -483.41749-101.76913-101.76429-101.76103 -62.05739
 Alpha  occ. eigenvalues --  -56.54305 -56.53967 -56.53944 -10.34255 -10.34225
 Alpha  occ. eigenvalues --  -10.33055 -10.32236 -10.30381 -10.30365 -10.29079
 Alpha  occ. eigenvalues --  -10.28239 -10.24617 -10.24599  -9.54637  -9.54181
 Alpha  occ. eigenvalues --   -9.53907  -8.67600  -7.28610  -7.28129  -7.27877
 Alpha  occ. eigenvalues --   -7.27672  -7.27663  -7.27226  -7.27216  -7.26938
 Alpha  occ. eigenvalues --   -7.26920  -6.61086  -6.59914  -6.59897  -2.69820
 Alpha  occ. eigenvalues --   -2.69489  -2.69476  -2.68522  -2.68521  -0.94154
 Alpha  occ. eigenvalues --   -0.89327  -0.89257  -0.86880  -0.82949  -0.80901
 Alpha  occ. eigenvalues --   -0.78153  -0.74295  -0.72353  -0.71698  -0.66859
 Alpha  occ. eigenvalues --   -0.63277  -0.59745  -0.56368  -0.52829  -0.51057
 Alpha  occ. eigenvalues --   -0.50100  -0.48850  -0.47958  -0.46815  -0.45596
 Alpha  occ. eigenvalues --   -0.44825  -0.43835  -0.42466  -0.41827  -0.40326
 Alpha  occ. eigenvalues --   -0.40194  -0.39079  -0.38625  -0.37902  -0.36113
 Alpha  occ. eigenvalues --   -0.35823  -0.33983  -0.33351  -0.32769  -0.32474
 Alpha  occ. eigenvalues --   -0.32179  -0.31497  -0.30183  -0.29948  -0.28767
 Alpha virt. eigenvalues --   -0.04566  -0.03341  -0.00214   0.00508   0.00898
 Alpha virt. eigenvalues --    0.01363   0.02411   0.02581   0.03056   0.03726
 Alpha virt. eigenvalues --    0.04242   0.04919   0.05141   0.05170   0.06396

 Mulliken atomic charges:
              1
     1  C   -0.079731
     2  C   -0.450538
     3  C   -0.091001
     4  C    0.194817
     5  C   -0.467075
     6  C   -0.287103
     7  H    0.251896
     8  H    0.218511
     9  H    0.229010
    10  H    0.234658
    11  H    0.213430
    12  Cl  -0.114447
    13  Br  -0.132002
    14  C   -0.421616
    15  H    0.175330
    16  H    0.189849
    17  H    0.187035
    18  C   -0.646646
    19  H    0.189128
    20  H    0.187808
    21  H    0.181730
    22  Cl  -0.030304
    23  C    0.261469
    24  H    0.184079
    25  C   -0.548808
    26  H    0.245579
    27  H    0.228762
    28  Cl  -0.103821
 Sum of Mulliken atomic charges =   0.00000

 Dipole moment (field-independent basis, Debye):
    X=              0.0796    Y=              0.5865    Z=              0.0754  Tot=              0.5967
 Quadrupole moment (field-independent basis, Debye-Ang):
   XX=           -129.4841   YY=           -123.8085   ZZ=           -122.2453
   XY=              4.0385   XZ=              2.0388   YZ=             -5.6965

 Normal termination of Gaussian 09 at Fri May 20 10:47:13 2022.
