 Gaussian 09, Revision C.01,
 Gaussian 09:  EM64L-G09RevC.01 23-Sep-2011

 -----------------------------------------------------
 # mPW1PW91/6-31+G** scrf=(PCM,solvent=chloroform) nmr
 -----------------------------------------------------

 99/9=1/99;
 -------
 comment
 -------
 Charge =  0 Multiplicity = 1

                         Standard orientation:
 ---------------------------------------------------------------------
 Center     Atomic      Atomic             Coordinates (Angstroms)
 Number     Number       Type             X           Y           Z
 ---------------------------------------------------------------------
      1          6           0       -0.434366    1.486628   -0.751790
      2          6           0        1.615371    0.230366    0.058852
      3          6           0       -0.633308   -0.807080    0.436641
      4          6           0        0.863263   -1.119343    0.112664
      5          6           0       -1.247408    0.244922   -0.459805
      6          6           0        1.055649    1.199882   -0.977590
      7          1           0       -1.179239   -1.745814    0.353341
      8          1           0        1.617116    2.136752   -0.964219
      9          1           0       -0.844310    1.993541   -1.626077
     10          1           0        1.621064    0.687347    1.049082
     11          1           0        1.169625    0.772167   -1.980528
     12         17           0       -0.621036    2.745605    0.590158
     13         35           0        3.557032   -0.022216   -0.339283
     14          6           0        0.878268   -1.849048   -1.251611
     15          1           0        0.322613   -1.315377   -2.028509
     16          1           0        0.433007   -2.844773   -1.149164
     17          1           0        1.910037   -1.971089   -1.592700
     18          6           0        1.467980   -2.058769    1.170858
     19          1           0        2.454388   -2.399406    0.846056
     20          1           0        0.828532   -2.937791    1.310952
     21          1           0        1.578212   -1.564097    2.138765
     22         17           0       -0.888706   -0.334565    2.204704
     23          6           0       -2.444329    0.108451   -1.057433
     24          1           0       -2.787223    0.914548   -1.704627
     25          6           0       -3.407882   -1.026729   -0.939764
     26          1           0       -3.600248   -1.488160   -1.911795
     27          1           0       -3.103865   -1.796299   -0.232288
     28         17           0       -5.031155   -0.418078   -0.364245
 ---------------------------------------------------------------------

 SCF Done:  E(RmPW1PW91) =  -4341.94945428     A.U. after   14 cycles

      1  C    Isotropic =   128.0726   Anisotropy =    28.0589

      2  C    Isotropic =   127.0235   Anisotropy =    64.0153

      3  C    Isotropic =   127.0855   Anisotropy =    46.2760

      4  C    Isotropic =   150.6506   Anisotropy =    17.4874

      5  C    Isotropic =    59.9141   Anisotropy =   149.0866

      6  C    Isotropic =   152.4975   Anisotropy =    42.4796

      7  H    Isotropic =    26.8604   Anisotropy =     6.6859

      8  H    Isotropic =    29.0656   Anisotropy =     6.8544

      9  H    Isotropic =    26.8948   Anisotropy =     6.8011

     10  H    Isotropic =    26.3973   Anisotropy =     8.8197

     11  H    Isotropic =    29.0534   Anisotropy =     4.4124

     12  Cl   Isotropic =   711.0836   Anisotropy =   510.8952

     13  Br   Isotropic =  2454.1596   Anisotropy =  1028.0555

     14  C    Isotropic =   175.0147   Anisotropy =    33.0080

     15  H    Isotropic =    30.7843   Anisotropy =     7.3418

     16  H    Isotropic =    31.0521   Anisotropy =     9.9585

     17  H    Isotropic =    30.0173   Anisotropy =     7.8788

     18  C    Isotropic =   167.8040   Anisotropy =    34.7491

     19  H    Isotropic =    30.0035   Anisotropy =     7.5276

     20  H    Isotropic =    30.7827   Anisotropy =    10.5337

     21  H    Isotropic =    30.0750   Anisotropy =     7.6125

     22  Cl   Isotropic =   777.0299   Anisotropy =   411.3413

     23  C    Isotropic =    61.4223   Anisotropy =   125.9399

     24  H    Isotropic =    25.4518   Anisotropy =     7.9070

     25  C    Isotropic =   150.4426   Anisotropy =    47.8673

     26  H    Isotropic =    27.4866   Anisotropy =     8.4882

     27  H    Isotropic =    27.3446   Anisotropy =     9.5343

     28  Cl   Isotropic =   841.7885   Anisotropy =   401.5614

 The electronic state is 1-A.
 Alpha  occ. eigenvalues -- -483.41564-101.76398-101.76013-101.75747 -62.05549
 Alpha  occ. eigenvalues --  -56.54119 -56.53780 -56.53762 -10.34060 -10.33920
 Alpha  occ. eigenvalues --  -10.32939 -10.32603 -10.30315 -10.30240 -10.29406
 Alpha  occ. eigenvalues --  -10.27921 -10.25327 -10.24634  -9.54200  -9.53727
 Alpha  occ. eigenvalues --   -9.53502  -8.67409  -7.28186  -7.27701  -7.27470
 Alpha  occ. eigenvalues --   -7.27224  -7.27202  -7.26766  -7.26748  -7.26537
 Alpha  occ. eigenvalues --   -7.26525  -6.60887  -6.59726  -6.59714  -2.69622
 Alpha  occ. eigenvalues --   -2.69294  -2.69283  -2.68339  -2.68339  -0.93874
 Alpha  occ. eigenvalues --   -0.89706  -0.88623  -0.86557  -0.83022  -0.80980
 Alpha  occ. eigenvalues --   -0.78040  -0.73728  -0.72238  -0.71362  -0.67492
 Alpha  occ. eigenvalues --   -0.64064  -0.59851  -0.55459  -0.53623  -0.50644
 Alpha  occ. eigenvalues --   -0.49981  -0.48532  -0.47844  -0.47378  -0.45350
 Alpha  occ. eigenvalues --   -0.44914  -0.43885  -0.42551  -0.42240  -0.40687
 Alpha  occ. eigenvalues --   -0.39966  -0.39323  -0.38668  -0.37159  -0.36299
 Alpha  occ. eigenvalues --   -0.35809  -0.33982  -0.33049  -0.32502  -0.32307
 Alpha  occ. eigenvalues --   -0.31948  -0.30495  -0.29863  -0.29736  -0.29257
 Alpha virt. eigenvalues --   -0.06125  -0.02198  -0.00551   0.00241   0.01084
 Alpha virt. eigenvalues --    0.01321   0.02069   0.02561   0.03374   0.03531
 Alpha virt. eigenvalues --    0.04147   0.04918   0.05224   0.05783   0.06141

 Mulliken atomic charges:
              1
     1  C    0.065443
     2  C   -0.394996
     3  C   -0.160488
     4  C    0.235418
     5  C   -0.439762
     6  C   -0.388975
     7  H    0.201431
     8  H    0.211650
     9  H    0.228336
    10  H    0.243466
    11  H    0.213564
    12  Cl  -0.107283
    13  Br  -0.128694
    14  C   -0.610407
    15  H    0.181174
    16  H    0.181487
    17  H    0.197822
    18  C   -0.390836
    19  H    0.189072
    20  H    0.177935
    21  H    0.191783
    22  Cl  -0.107905
    23  C    0.088304
    24  H    0.190505
    25  C   -0.430986
    26  H    0.244325
    27  H    0.217505
    28  Cl  -0.098892
 Sum of Mulliken atomic charges =   0.00000

 Dipole moment (field-independent basis, Debye):
    X=              0.3333    Y=             -3.1660    Z=             -4.4947  Tot=              5.5079
 Quadrupole moment (field-independent basis, Debye-Ang):
   XX=           -139.5481   YY=           -117.5283   ZZ=           -117.8491
   XY=              3.3671   XZ=              7.0632   YZ=             -2.3065

 Normal termination of Gaussian 09 at Fri May 20 10:26:04 2022.
