 Gaussian 09, Revision C.01,
 Gaussian 09:  EM64L-G09RevC.01 23-Sep-2011

 -----------------------------------------------------
 # mPW1PW91/6-31+G** scrf=(PCM,solvent=chloroform) nmr
 -----------------------------------------------------

 99/9=1/99;
 -------
 comment
 -------
 Charge =  0 Multiplicity = 1

                         Standard orientation:
 ---------------------------------------------------------------------
 Center     Atomic      Atomic             Coordinates (Angstroms)
 Number     Number       Type             X           Y           Z
 ---------------------------------------------------------------------
      1          6           0        0.924839   -0.077654    1.164690
      2          6           0       -1.474658   -0.036955    0.304365
      3          6           0        0.309005    0.925934   -1.146588
      4          6           0       -1.028339    0.125001   -1.166146
      5          6           0        1.359693    0.370796   -0.210249
      6          6           0       -0.451068   -0.760204    1.173665
      7          1           0        0.706788    0.951386   -2.162683
      8          1           0       -0.810886   -0.837077    2.202116
      9          1           0        1.652390   -0.768740    1.587369
     10          1           0       -1.718238    0.939882    0.723928
     11          1           0       -0.317265   -1.784062    0.805917
     12         17           0        0.935304    1.332209    2.362805
     13         35           0       -3.198304   -1.036913    0.450187
     14          6           0       -0.721489   -1.234656   -1.838325
     15          1           0        0.148682   -1.740492   -1.409673
     16          1           0       -0.524065   -1.087269   -2.905533
     17          1           0       -1.586462   -1.896659   -1.739277
     18          6           0       -2.095870    0.851241   -2.002931
     19          1           0       -2.961448    0.200061   -2.148648
     20          1           0       -1.693823    1.115743   -2.987512
     21          1           0       -2.436007    1.769755   -1.518809
     22         17           0        0.041319    2.718320   -0.757786
     23          6           0        2.626498    0.262778   -0.648065
     24          1           0        2.844731    0.555181   -1.673896
     25          6           0        3.809167   -0.201946    0.132276
     26          1           0        3.627050   -0.292708    1.201694
     27          1           0        4.662215    0.460999   -0.023896
     28         17           0        4.364572   -1.852884   -0.445242
 ---------------------------------------------------------------------

 SCF Done:  E(RmPW1PW91) =  -4341.95085642     A.U. after   14 cycles

      1  C    Isotropic =   137.3715   Anisotropy =    46.3013

      2  C    Isotropic =   127.2254   Anisotropy =    63.0102

      3  C    Isotropic =   117.1500   Anisotropy =    25.5756

      4  C    Isotropic =   150.3761   Anisotropy =    15.3974

      5  C    Isotropic =    56.1331   Anisotropy =   152.9650

      6  C    Isotropic =   153.1866   Anisotropy =    42.8220

      7  H    Isotropic =    27.1008   Anisotropy =     5.3916

      8  H    Isotropic =    29.0119   Anisotropy =     6.5374

      9  H    Isotropic =    26.4554   Anisotropy =     8.2887

     10  H    Isotropic =    26.3075   Anisotropy =     8.7850

     11  H    Isotropic =    29.0075   Anisotropy =     3.8843

     12  Cl   Isotropic =   714.2698   Anisotropy =   534.4909

     13  Br   Isotropic =  2456.9614   Anisotropy =  1011.4191

     14  C    Isotropic =   174.6294   Anisotropy =    32.0561

     15  H    Isotropic =    30.6755   Anisotropy =     7.9919

     16  H    Isotropic =    30.9140   Anisotropy =    10.1559

     17  H    Isotropic =    30.0041   Anisotropy =     7.4924

     18  C    Isotropic =   167.5475   Anisotropy =    34.9155

     19  H    Isotropic =    30.0417   Anisotropy =     7.5970

     20  H    Isotropic =    30.7519   Anisotropy =    10.6761

     21  H    Isotropic =    30.1562   Anisotropy =     7.7572

     22  Cl   Isotropic =   768.7458   Anisotropy =   421.9282

     23  C    Isotropic =    62.0049   Anisotropy =   130.5745

     24  H    Isotropic =    25.2790   Anisotropy =     8.2816

     25  C    Isotropic =   150.6407   Anisotropy =    49.1009

     26  H    Isotropic =    27.3064   Anisotropy =     8.2958

     27  H    Isotropic =    27.4902   Anisotropy =     9.1474

     28  Cl   Isotropic =   826.1257   Anisotropy =   412.9443

 The electronic state is 1-A.
 Alpha  occ. eigenvalues -- -483.41532-101.76490-101.76071-101.75934 -62.05516
 Alpha  occ. eigenvalues --  -56.54088 -56.53748 -56.53731 -10.34183 -10.33925
 Alpha  occ. eigenvalues --  -10.32884 -10.32578 -10.30411 -10.30089 -10.29355
 Alpha  occ. eigenvalues --  -10.28017 -10.25150 -10.24565  -9.54285  -9.53813
 Alpha  occ. eigenvalues --   -9.53658  -8.67377  -7.28263  -7.27784  -7.27625
 Alpha  occ. eigenvalues --   -7.27311  -7.27296  -7.26850  -7.26834  -7.26700
 Alpha  occ. eigenvalues --   -7.26684  -6.60856  -6.59694  -6.59682  -2.69591
 Alpha  occ. eigenvalues --   -2.69262  -2.69252  -2.68308  -2.68307  -0.93905
 Alpha  occ. eigenvalues --   -0.89688  -0.88620  -0.86537  -0.83029  -0.80959
 Alpha  occ. eigenvalues --   -0.78144  -0.74206  -0.72017  -0.70960  -0.66833
 Alpha  occ. eigenvalues --   -0.65503  -0.58903  -0.55466  -0.54089  -0.51116
 Alpha  occ. eigenvalues --   -0.49545  -0.48259  -0.47835  -0.46782  -0.45632
 Alpha  occ. eigenvalues --   -0.44757  -0.43831  -0.43353  -0.41834  -0.40539
 Alpha  occ. eigenvalues --   -0.39824  -0.39549  -0.38638  -0.37063  -0.36249
 Alpha  occ. eigenvalues --   -0.35789  -0.34011  -0.33269  -0.32647  -0.32484
 Alpha  occ. eigenvalues --   -0.31886  -0.30682  -0.29853  -0.29732  -0.29329
 Alpha virt. eigenvalues --   -0.06583  -0.02211  -0.00006   0.00106   0.00616
 Alpha virt. eigenvalues --    0.01480   0.01676   0.02942   0.03457   0.03837
 Alpha virt. eigenvalues --    0.04099   0.04703   0.05032   0.05929   0.06287

 Mulliken atomic charges:
              1
     1  C    0.064489
     2  C   -0.339895
     3  C   -0.206491
     4  C    0.302349
     5  C   -0.424654
     6  C   -0.502086
     7  H    0.224128
     8  H    0.212402
     9  H    0.222363
    10  H    0.242519
    11  H    0.217782
    12  Cl  -0.109837
    13  Br  -0.120431
    14  C   -0.577517
    15  H    0.184210
    16  H    0.183213
    17  H    0.196630
    18  C   -0.405415
    19  H    0.188913
    20  H    0.178769
    21  H    0.191204
    22  Cl  -0.084726
    23  C    0.029791
    24  H    0.185674
    25  C   -0.420349
    26  H    0.222115
    27  H    0.244261
    28  Cl  -0.099413
 Sum of Mulliken atomic charges =   0.00000

 Dipole moment (field-independent basis, Debye):
    X=              1.5943    Y=             -1.0843    Z=             -1.9530  Tot=              2.7444
 Quadrupole moment (field-independent basis, Debye-Ang):
   XX=           -125.0974   YY=           -129.6671   ZZ=           -117.0459
   XY=              4.4873   XZ=              2.3809   YZ=             -3.5457

 Normal termination of Gaussian 09 at Fri May 20 10:29:31 2022.
