 Gaussian 09, Revision C.01,
 Gaussian 09:  EM64L-G09RevC.01 23-Sep-2011

 -----------------------------------------------------
 # mPW1PW91/6-31+G** scrf=(PCM,solvent=chloroform) nmr
 -----------------------------------------------------

 99/9=1/99;
 -------
 comment
 -------
 Charge =  0 Multiplicity = 1

                         Standard orientation:
 ---------------------------------------------------------------------
 Center     Atomic      Atomic             Coordinates (Angstroms)
 Number     Number       Type             X           Y           Z
 ---------------------------------------------------------------------
      1          6           0       -0.371751    1.086850   -1.463470
      2          6           0        1.283480   -0.522633   -0.381434
      3          6           0       -0.717543    0.053710    0.910031
      4          6           0        0.845508   -0.059141    1.029816
      5          6           0       -1.268347    0.412152   -0.458205
      6          6           0        1.077877    0.537925   -1.465733
      7          1           0       -1.125916   -0.920021    1.183640
      8          1           0        1.791706    1.350766   -1.324424
      9          1           0       -0.812409    0.982472   -2.454139
     10          1           0        0.764959   -1.449113   -0.641168
     11          1           0        1.293282    0.096087   -2.443112
     12         17           0       -0.381442    2.924169   -1.214414
     13         35           0        3.202635   -1.067641   -0.440241
     14          6           0        1.150398   -1.135237    2.089556
     15          1           0        0.781662   -2.121071    1.780276
     16          1           0        0.670723   -0.870788    3.037764
     17          1           0        2.226460   -1.218773    2.259524
     18          6           0        1.547522    1.253040    1.429685
     19          1           0        2.626365    1.135157    1.287597
     20          1           0        1.363512    1.474295    2.483287
     21          1           0        1.210198    2.113270    0.848175
     22         17           0       -1.422088    1.163619    2.208496
     23          6           0       -2.509708    0.065563   -0.842817
     24          1           0       -2.823273    0.304566   -1.857703
     25          6           0       -3.549977   -0.608610   -0.013812
     26          1           0       -3.269337   -0.743563    1.028564
     27          1           0       -4.495805   -0.064345   -0.055535
     28         17           0       -3.915241   -2.276212   -0.683846
 ---------------------------------------------------------------------

 SCF Done:  E(RmPW1PW91) =  -4341.94082416     A.U. after   14 cycles

      1  C    Isotropic =   128.0164   Anisotropy =    28.7293

      2  C    Isotropic =   124.4085   Anisotropy =    59.0093

      3  C    Isotropic =   126.0850   Anisotropy =    39.7068

      4  C    Isotropic =   151.3224   Anisotropy =    24.4450

      5  C    Isotropic =    56.0720   Anisotropy =   148.7840

      6  C    Isotropic =   153.3169   Anisotropy =    53.8561

      7  H    Isotropic =    26.7798   Anisotropy =     5.2797

      8  H    Isotropic =    28.9917   Anisotropy =     4.5090

      9  H    Isotropic =    26.8090   Anisotropy =     6.5183

     10  H    Isotropic =    27.5245   Anisotropy =     7.2791

     11  H    Isotropic =    28.6936   Anisotropy =     7.2174

     12  Cl   Isotropic =   678.2109   Anisotropy =   541.3424

     13  Br   Isotropic =  2385.8668   Anisotropy =  1077.7524

     14  C    Isotropic =   166.1483   Anisotropy =    41.8439

     15  H    Isotropic =    30.8391   Anisotropy =     9.5490

     16  H    Isotropic =    30.0555   Anisotropy =     8.7435

     17  H    Isotropic =    30.0546   Anisotropy =     7.7893

     18  C    Isotropic =   175.7304   Anisotropy =    23.3514

     19  H    Isotropic =    30.0621   Anisotropy =     7.1507

     20  H    Isotropic =    30.3448   Anisotropy =     8.5413

     21  H    Isotropic =    29.5043   Anisotropy =     9.1033

     22  Cl   Isotropic =   746.8811   Anisotropy =   477.2533

     23  C    Isotropic =    58.5677   Anisotropy =   130.5861

     24  H    Isotropic =    25.3613   Anisotropy =     7.6829

     25  C    Isotropic =   149.9791   Anisotropy =    50.3256

     26  H    Isotropic =    27.1412   Anisotropy =    10.8078

     27  H    Isotropic =    27.4438   Anisotropy =     8.8367

     28  Cl   Isotropic =   837.3320   Anisotropy =   402.1281

 The electronic state is 1-A.
 Alpha  occ. eigenvalues -- -483.41767-101.76495-101.76372-101.76111 -62.05750
 Alpha  occ. eigenvalues --  -56.54322 -56.53980 -56.53965 -10.34129 -10.34113
 Alpha  occ. eigenvalues --  -10.33079 -10.32793 -10.30354 -10.30145 -10.29339
 Alpha  occ. eigenvalues --  -10.28017 -10.24759 -10.24261  -9.54288  -9.54084
 Alpha  occ. eigenvalues --   -9.53858  -8.67610  -7.28266  -7.28059  -7.27822
 Alpha  occ. eigenvalues --   -7.27315  -7.27299  -7.27122  -7.27106  -7.26891
 Alpha  occ. eigenvalues --   -7.26890  -6.61098  -6.59924  -6.59910  -2.69832
 Alpha  occ. eigenvalues --   -2.69500  -2.69488  -2.68534  -2.68534  -0.93805
 Alpha  occ. eigenvalues --   -0.89606  -0.88830  -0.86838  -0.83049  -0.80770
 Alpha  occ. eigenvalues --   -0.78120  -0.73987  -0.72123  -0.71524  -0.66896
 Alpha  occ. eigenvalues --   -0.64141  -0.59745  -0.55807  -0.53430  -0.51288
 Alpha  occ. eigenvalues --   -0.49490  -0.48357  -0.47643  -0.46575  -0.45530
 Alpha  occ. eigenvalues --   -0.45002  -0.43883  -0.43021  -0.41724  -0.40337
 Alpha  occ. eigenvalues --   -0.39948  -0.39816  -0.38552  -0.36913  -0.36370
 Alpha  occ. eigenvalues --   -0.35748  -0.33453  -0.33109  -0.32703  -0.32340
 Alpha  occ. eigenvalues --   -0.32303  -0.31204  -0.30097  -0.29988  -0.29090
 Alpha virt. eigenvalues --   -0.07047  -0.02078  -0.00424  -0.00060   0.00892
 Alpha virt. eigenvalues --    0.01580   0.02010   0.02657   0.03456   0.03870
 Alpha virt. eigenvalues --    0.03909   0.04670   0.05197   0.05909   0.06171

 Mulliken atomic charges:
              1
     1  C    0.303498
     2  C   -0.362002
     3  C   -0.895520
     4  C    0.636649
     5  C   -0.354145
     6  C   -0.580521
     7  H    0.239355
     8  H    0.217512
     9  H    0.227243
    10  H    0.225011
    11  H    0.208367
    12  Cl  -0.109979
    13  Br  -0.059395
    14  C   -0.493957
    15  H    0.176184
    16  H    0.189650
    17  H    0.191919
    18  C   -0.585975
    19  H    0.188423
    20  H    0.189130
    21  H    0.197623
    22  Cl  -0.028832
    23  C    0.118493
    24  H    0.190008
    25  C   -0.381149
    26  H    0.227480
    27  H    0.245792
    28  Cl  -0.120862
 Sum of Mulliken atomic charges =   0.00000

 Dipole moment (field-independent basis, Debye):
    X=             -0.6999    Y=             -0.8679    Z=             -0.7849  Tot=              1.3635
 Quadrupole moment (field-independent basis, Debye-Ang):
   XX=           -124.5489   YY=           -132.5339   ZZ=           -116.7276
   XY=             -2.1447   XZ=              2.0908   YZ=             -2.8266

 Normal termination of Gaussian 09 at Fri May 20 10:38:48 2022.
