 Gaussian 09, Revision C.01,
 Gaussian 09:  EM64L-G09RevC.01 23-Sep-2011

 -----------------------------------------------------
 # mPW1PW91/6-31+G** scrf=(PCM,solvent=chloroform) nmr
 -----------------------------------------------------

 99/9=1/99;
 -------
 comment
 -------
 Charge =  0 Multiplicity = 1

                         Standard orientation:
 ---------------------------------------------------------------------
 Center     Atomic      Atomic             Coordinates (Angstroms)
 Number     Number       Type             X           Y           Z
 ---------------------------------------------------------------------
      1          6           0       -0.016877    1.561504    0.079447
      2          6           0        1.437364   -0.105142   -1.143099
      3          6           0       -0.418496   -0.900155    0.470015
      4          6           0        0.495243   -1.264302   -0.737722
      5          6           0       -1.035988    0.479490    0.380776
      6          6           0        0.748626    1.259627   -1.214551
      7          1           0       -1.195726   -1.660662    0.517861
      8          1           0        1.491045    2.039858   -1.396086
      9          1           0        0.695912    1.615180    0.906971
     10          1           0        1.896910   -0.342078   -2.103496
     11          1           0        0.048211    1.268416   -2.057994
     12         17           0       -0.719949    3.236346   -0.030998
     13         35           0        3.043461    0.083614    0.048198
     14          6           0       -0.469028   -1.497905   -1.938329
     15          1           0       -1.138673   -0.654588   -2.124634
     16          1           0       -1.094236   -2.376336   -1.747744
     17          1           0        0.106118   -1.691145   -2.850468
     18          6           0        1.260731   -2.576374   -0.500662
     19          1           0        1.790763   -2.867005   -1.414977
     20          1           0        0.563100   -3.381968   -0.246206
     21          1           0        1.992065   -2.484586    0.302492
     22         17           0        0.408236   -1.059551    2.119636
     23          6           0       -2.348354    0.703662    0.547085
     24          1           0       -2.717011    1.716945    0.421760
     25          6           0       -3.384287   -0.306848    0.910758
     26          1           0       -2.984452   -1.220702    1.347514
     27          1           0       -4.115511    0.119059    1.599126
     28         17           0       -4.363183   -0.831396   -0.557070
 ---------------------------------------------------------------------

 SCF Done:  E(RmPW1PW91) =  -4341.94905315     A.U. after   14 cycles

      1  C    Isotropic =   131.4195   Anisotropy =    59.8333

      2  C    Isotropic =   123.7113   Anisotropy =    50.0005

      3  C    Isotropic =   125.8875   Anisotropy =    44.4861

      4  C    Isotropic =   151.3132   Anisotropy =     2.2644

      5  C    Isotropic =    53.2015   Anisotropy =   150.3149

      6  C    Isotropic =   151.3327   Anisotropy =    31.3183

      7  H    Isotropic =    26.7295   Anisotropy =     8.2256

      8  H    Isotropic =    29.0234   Anisotropy =     7.2156

      9  H    Isotropic =    25.9960   Anisotropy =     9.0518

     10  H    Isotropic =    27.0505   Anisotropy =     7.4391

     11  H    Isotropic =    29.0778   Anisotropy =     5.6441

     12  Cl   Isotropic =   849.9434   Anisotropy =   322.0349

     13  Br   Isotropic =  2422.1392   Anisotropy =  1057.6112

     14  C    Isotropic =   167.2598   Anisotropy =    42.4775

     15  H    Isotropic =    30.2506   Anisotropy =     6.2762

     16  H    Isotropic =    30.5162   Anisotropy =     9.3560

     17  H    Isotropic =    30.6787   Anisotropy =    10.5355

     18  C    Isotropic =   167.3162   Anisotropy =    35.1938

     19  H    Isotropic =    30.5329   Anisotropy =    10.2013

     20  H    Isotropic =    30.6257   Anisotropy =    10.3082

     21  H    Isotropic =    29.4164   Anisotropy =     4.8533

     22  Cl   Isotropic =   777.5622   Anisotropy =   428.9986

     23  C    Isotropic =    71.1418   Anisotropy =   139.2424

     24  H    Isotropic =    25.1190   Anisotropy =    10.3523

     25  C    Isotropic =   150.6495   Anisotropy =    50.4754

     26  H    Isotropic =    27.3531   Anisotropy =     7.0311

     27  H    Isotropic =    27.4458   Anisotropy =     9.7139

     28  Cl   Isotropic =   819.4505   Anisotropy =   423.3431

 The electronic state is 1-A.
 Alpha  occ. eigenvalues -- -483.41330-101.76623-101.76098-101.76090 -62.05283
 Alpha  occ. eigenvalues --  -56.53831 -56.53490 -56.53479 -10.33981 -10.33667
 Alpha  occ. eigenvalues --  -10.33115 -10.32528 -10.30594 -10.30164 -10.28253
 Alpha  occ. eigenvalues --  -10.28074 -10.25813 -10.24822  -9.54371  -9.53880
 Alpha  occ. eigenvalues --   -9.53795  -8.67089  -7.28341  -7.27851  -7.27766
 Alpha  occ. eigenvalues --   -7.27408  -7.27395  -7.26912  -7.26898  -7.26836
 Alpha  occ. eigenvalues --   -7.26819  -6.60560  -6.59399  -6.59378  -2.69292
 Alpha  occ. eigenvalues --   -2.68969  -2.68951  -2.68007  -2.68006  -0.93952
 Alpha  occ. eigenvalues --   -0.89354  -0.89073  -0.86554  -0.82446  -0.81585
 Alpha  occ. eigenvalues --   -0.77947  -0.73983  -0.72272  -0.70151  -0.68019
 Alpha  occ. eigenvalues --   -0.64615  -0.59537  -0.55397  -0.52985  -0.51428
 Alpha  occ. eigenvalues --   -0.49644  -0.48781  -0.47738  -0.45891  -0.45691
 Alpha  occ. eigenvalues --   -0.45291  -0.43988  -0.42587  -0.41976  -0.41143
 Alpha  occ. eigenvalues --   -0.40247  -0.39502  -0.38423  -0.37952  -0.36059
 Alpha  occ. eigenvalues --   -0.35179  -0.33721  -0.33006  -0.32807  -0.32664
 Alpha  occ. eigenvalues --   -0.32092  -0.31819  -0.29880  -0.28943  -0.28457
 Alpha virt. eigenvalues --   -0.05198  -0.02008  -0.00497   0.00282   0.00648
 Alpha virt. eigenvalues --    0.01362   0.02268   0.02678   0.03211   0.03803
 Alpha virt. eigenvalues --    0.04445   0.04741   0.05455   0.05549   0.06241

 Mulliken atomic charges:
              1
     1  C   -0.267008
     2  C   -0.428502
     3  C   -0.407957
     4  C    0.280745
     5  C    0.075791
     6  C   -0.266139
     7  H    0.207786
     8  H    0.214352
     9  H    0.263733
    10  H    0.221018
    11  H    0.213152
    12  Cl   0.010097
    13  Br  -0.180517
    14  C   -0.593128
    15  H    0.196454
    16  H    0.192782
    17  H    0.188325
    18  C   -0.428617
    19  H    0.180263
    20  H    0.179434
    21  H    0.198462
    22  Cl  -0.074726
    23  C   -0.039225
    24  H    0.191754
    25  C   -0.482863
    26  H    0.220013
    27  H    0.239121
    28  Cl  -0.104601
 Sum of Mulliken atomic charges =   0.00000

 Dipole moment (field-independent basis, Debye):
    X=             -0.5707    Y=             -1.7951    Z=             -2.0696  Tot=              2.7984
 Quadrupole moment (field-independent basis, Debye-Ang):
   XX=           -131.2763   YY=           -121.9242   ZZ=           -116.4553
   XY=             -0.9942   XZ=             -9.7014   YZ=              2.2662

 Normal termination of Gaussian 09 at Fri May 20 10:47:13 2022.
