 Gaussian 09, Revision C.01,
 Gaussian 09:  EM64L-G09RevC.01 23-Sep-2011

 -----------------------------------------------------
 # mPW1PW91/6-31+G** scrf=(PCM,solvent=chloroform) nmr
 -----------------------------------------------------

 99/9=1/99;
 -------
 comment
 -------
 Charge =  0 Multiplicity = 1

                         Standard orientation:
 ---------------------------------------------------------------------
 Center     Atomic      Atomic             Coordinates (Angstroms)
 Number     Number       Type             X           Y           Z
 ---------------------------------------------------------------------
      1          6           0        0.288661    1.785963   -0.259913
      2          6           0       -1.720998    0.301008    0.155272
      3          6           0        0.537569   -0.456405    0.799361
      4          6           0       -0.848809   -0.984414    0.273568
      5          6           0        1.170165    0.560381   -0.132326
      6          6           0       -1.129328    1.412558   -0.705957
      7          1           0        0.355343    0.056329    1.747657
      8          1           0       -1.067545    1.082458   -1.749793
      9          1           0        0.723493    2.497559   -0.961390
     10          1           0       -1.933684    0.680656    1.156150
     11          1           0       -1.777559    2.292285   -0.681678
     12         17           0        0.217926    2.730634    1.333013
     13         35           0       -3.543538   -0.100646   -0.559451
     14          6           0       -1.485254   -1.919918    1.318506
     15          1           0       -1.515363   -1.447515    2.307980
     16          1           0       -0.924372   -2.852702    1.405988
     17          1           0       -2.511223   -2.158033    1.026056
     18          6           0       -0.688907   -1.719298   -1.067600
     19          1           0       -1.665218   -2.036275   -1.442888
     20          1           0       -0.066123   -2.608773   -0.934552
     21          1           0       -0.218840   -1.092345   -1.831862
     22         17           0        1.629129   -1.830533    1.304466
     23          6           0        2.276261    0.535653   -0.896469
     24          1           0        2.486735    1.446850   -1.455865
     25          6           0        3.286936   -0.533802   -1.153988
     26          1           0        3.103911   -1.465337   -0.632053
     27          1           0        3.366699   -0.721253   -2.227795
     28         17           0        4.949992    0.038625   -0.645002
 ---------------------------------------------------------------------

 SCF Done:  E(RmPW1PW91) =  -4341.94549286     A.U. after   14 cycles

      1  C    Isotropic =   121.5031   Anisotropy =    30.7611

      2  C    Isotropic =   124.4815   Anisotropy =    54.7514

      3  C    Isotropic =   120.7664   Anisotropy =    36.0300

      4  C    Isotropic =   145.4895   Anisotropy =    29.1103

      5  C    Isotropic =    59.1861   Anisotropy =   143.0217

      6  C    Isotropic =   151.8008   Anisotropy =    42.4714

      7  H    Isotropic =    26.4524   Anisotropy =     8.7709

      8  H    Isotropic =    29.1971   Anisotropy =     4.4750

      9  H    Isotropic =    26.9257   Anisotropy =     6.4725

     10  H    Isotropic =    26.8337   Anisotropy =     7.5127

     11  H    Isotropic =    29.1477   Anisotropy =     7.0936

     12  Cl   Isotropic =   764.5120   Anisotropy =   459.3781

     13  Br   Isotropic =  2366.1017   Anisotropy =  1063.8496

     14  C    Isotropic =   168.5923   Anisotropy =    39.6607

     15  H    Isotropic =    30.7072   Anisotropy =     9.7882

     16  H    Isotropic =    30.1300   Anisotropy =     8.4141

     17  H    Isotropic =    29.9143   Anisotropy =     6.8750

     18  C    Isotropic =   180.8868   Anisotropy =    24.8006

     19  H    Isotropic =    30.3448   Anisotropy =     7.9507

     20  H    Isotropic =    30.5426   Anisotropy =     8.2513

     21  H    Isotropic =    30.7380   Anisotropy =     7.5162

     22  Cl   Isotropic =   852.0254   Anisotropy =   299.8660

     23  C    Isotropic =    66.6795   Anisotropy =   115.1176

     24  H    Isotropic =    25.5239   Anisotropy =     8.1792

     25  C    Isotropic =   150.3009   Anisotropy =    49.2058

     26  H    Isotropic =    26.1107   Anisotropy =    12.8105

     27  H    Isotropic =    27.6422   Anisotropy =     8.2087

     28  Cl   Isotropic =   843.1431   Anisotropy =   401.3541

 The electronic state is 1-A.
 Alpha  occ. eigenvalues -- -483.41802-101.76854-101.76436-101.75946 -62.05792
 Alpha  occ. eigenvalues --  -56.54357 -56.54019 -56.53996 -10.34270 -10.34244
 Alpha  occ. eigenvalues --  -10.33085 -10.32077 -10.30521 -10.30424 -10.29039
 Alpha  occ. eigenvalues --  -10.28277 -10.24759 -10.24636  -9.54580  -9.54190
 Alpha  occ. eigenvalues --   -9.53745  -8.67652  -7.28556  -7.28141  -7.27718
 Alpha  occ. eigenvalues --   -7.27613  -7.27607  -7.27234  -7.27222  -7.26777
 Alpha  occ. eigenvalues --   -7.26756  -6.61137  -6.59965  -6.59948  -2.69870
 Alpha  occ. eigenvalues --   -2.69541  -2.69526  -2.68574  -2.68573  -0.94182
 Alpha  occ. eigenvalues --   -0.89362  -0.89128  -0.86873  -0.82965  -0.80923
 Alpha  occ. eigenvalues --   -0.78169  -0.74357  -0.72441  -0.71708  -0.66858
 Alpha  occ. eigenvalues --   -0.63297  -0.59704  -0.56392  -0.52888  -0.51037
 Alpha  occ. eigenvalues --   -0.50303  -0.48489  -0.48088  -0.47105  -0.45020
 Alpha  occ. eigenvalues --   -0.44995  -0.43735  -0.42704  -0.41863  -0.40445
 Alpha  occ. eigenvalues --   -0.40306  -0.39097  -0.38680  -0.37930  -0.36154
 Alpha  occ. eigenvalues --   -0.35895  -0.34003  -0.33071  -0.32727  -0.32552
 Alpha  occ. eigenvalues --   -0.32014  -0.31168  -0.30233  -0.29994  -0.28974
 Alpha virt. eigenvalues --   -0.04808  -0.03335  -0.00131   0.00539   0.00801
 Alpha virt. eigenvalues --    0.01787   0.01903   0.02517   0.03095   0.04050
 Alpha virt. eigenvalues --    0.04266   0.04643   0.05068   0.05287   0.06420

 Mulliken atomic charges:
              1
     1  C   -0.095520
     2  C   -0.441460
     3  C   -0.090646
     4  C    0.178031
     5  C   -0.433596
     6  C   -0.309319
     7  H    0.253356
     8  H    0.216470
     9  H    0.228562
    10  H    0.235309
    11  H    0.213877
    12  Cl  -0.115144
    13  Br  -0.133236
    14  C   -0.436759
    15  H    0.176161
    16  H    0.190229
    17  H    0.186766
    18  C   -0.620454
    19  H    0.189908
    20  H    0.187265
    21  H    0.176356
    22  Cl  -0.027121
    23  C    0.230729
    24  H    0.179237
    25  C   -0.485607
    26  H    0.223416
    27  H    0.239162
    28  Cl  -0.115973
 Sum of Mulliken atomic charges =   0.00000

 Dipole moment (field-independent basis, Debye):
    X=             -1.7261    Y=             -0.3861    Z=             -2.7344  Tot=              3.2566
 Quadrupole moment (field-independent basis, Debye-Ang):
   XX=           -143.3845   YY=           -120.3124   ZZ=           -116.3025
   XY=             -0.5505   XZ=             -6.3193   YZ=             -3.3112

 Normal termination of Gaussian 09 at Fri May 20 10:43:43 2022.
