 Gaussian 09, Revision C.01,
 Gaussian 09:  AM64L-G09RevC.01 23-Sep-2011

 ------------------------------------------------
 # mpw1pw91/6-31+G** nmr scrf=(pcm,solvent=water)
 ------------------------------------------------

 99/9=1/99;
 -------
 comment
 -------
 Charge =  0 Multiplicity = 1

                         Standard orientation:
 ---------------------------------------------------------------------
 Center     Atomic      Atomic             Coordinates (Angstroms)
 Number     Number       Type             X           Y           Z
 ---------------------------------------------------------------------
      1          6           0       -2.601449    0.432929    0.011580
      2          6           0       -1.261961    0.468274    0.761251
      3          7           0       -0.575677   -0.844353    0.455109
      4          6           0       -1.450156   -1.614879   -0.451364
      5          6           0       -2.854750   -1.072078   -0.175916
      6          6           0        0.763518   -0.550629   -0.066091
      7          6           0        1.086335    0.817909    0.560519
      8          6           0       -0.245901    1.573633    0.411238
      9          1           0       -3.397586    0.941544    0.563345
     10          1           0       -2.507668    0.920130   -0.965183
     11          1           0       -1.444541    0.524803    1.841547
     12          1           0       -1.368898   -2.691720   -0.264949
     13          1           0       -1.177370   -1.442619   -1.506655
     14          1           0       -3.257467   -1.510275    0.745301
     15          1           0       -3.552778   -1.293567   -0.989179
     16          1           0        0.752121   -0.430618   -1.167283
     17          1           0        1.318065    0.688475    1.623355
     18          1           0       -0.320140    2.431664    1.082790
     19          8           0       -0.355677    2.126707   -0.907208
     20          1           0       -0.402603    1.398893   -1.551383
     21          8           0        2.210298    1.475042   -0.017549
     22          1           0        1.906197    1.805076   -0.883939
     23          6           0        1.816997   -1.610117    0.249683
     24          1           0        1.940107   -1.700881    1.339996
     25          1           0        1.511644   -2.589550   -0.134963
     26          8           0        3.062971   -1.287860   -0.380489
     27          1           0        3.174127   -0.322261   -0.282005
 ---------------------------------------------------------------------

 SCF Done:  E(RmPW1PW91) =  -594.199099482     A.U. after   13 cycles

      1  C    Isotropic =   170.1243   Anisotropy =    22.4639

      2  C    Isotropic =   128.9770   Anisotropy =    49.2428

      3  N    Isotropic =   198.7944   Anisotropy =    75.4974

      4  C    Isotropic =   138.0586   Anisotropy =    56.4860

      5  C    Isotropic =   165.1249   Anisotropy =    22.4334

      6  C    Isotropic =   126.5793   Anisotropy =    60.2804

      7  C    Isotropic =   112.4158   Anisotropy =    43.4421

      8  C    Isotropic =   121.0932   Anisotropy =    30.2981

      9  H    Isotropic =    29.8465   Anisotropy =    11.7482

     10  H    Isotropic =    29.8179   Anisotropy =     6.9959

     11  H    Isotropic =    27.8958   Anisotropy =     9.0319

     12  H    Isotropic =    28.3886   Anisotropy =     9.6620

     13  H    Isotropic =    29.3195   Anisotropy =     8.0038

     14  H    Isotropic =    29.5909   Anisotropy =    11.0782

     15  H    Isotropic =    29.4996   Anisotropy =    11.7301

     16  H    Isotropic =    29.2819   Anisotropy =     3.8219

     17  H    Isotropic =    27.4759   Anisotropy =     3.9234

     18  H    Isotropic =    27.7238   Anisotropy =     8.4381

     19  O    Isotropic =   302.6323   Anisotropy =    83.7806

     20  H    Isotropic =    31.0455   Anisotropy =    14.5130

     21  O    Isotropic =   293.7491   Anisotropy =    38.8525

     22  H    Isotropic =    28.8416   Anisotropy =    13.7749

     23  C    Isotropic =   126.9853   Anisotropy =    57.5612

     24  H    Isotropic =    27.8266   Anisotropy =     4.6119

     25  H    Isotropic =    27.6355   Anisotropy =     5.0710

     26  O    Isotropic =   314.4356   Anisotropy =    41.0526

     27  H    Isotropic =    28.2675   Anisotropy =    19.9936

 The electronic state is 1-A.
 Alpha  occ. eigenvalues --  -19.27166 -19.27106 -19.24954 -14.41846 -10.31163
 Alpha  occ. eigenvalues --  -10.31122 -10.29550 -10.28567 -10.28395 -10.27211
 Alpha  occ. eigenvalues --  -10.24986 -10.24882  -1.08879  -1.06295  -1.04949
 Alpha  occ. eigenvalues --   -0.97070  -0.83432  -0.79897  -0.75112  -0.72009
 Alpha  occ. eigenvalues --   -0.67645  -0.62526  -0.60957  -0.59178  -0.56041
 Alpha  occ. eigenvalues --   -0.53811  -0.51491  -0.51243  -0.48654  -0.47946
 Alpha  occ. eigenvalues --   -0.46393  -0.44736  -0.43634  -0.42546  -0.41092
 Alpha  occ. eigenvalues --   -0.40217  -0.39439  -0.38869  -0.36542  -0.36041
 Alpha  occ. eigenvalues --   -0.35770  -0.34938  -0.34078  -0.32011  -0.29562
 Alpha  occ. eigenvalues --   -0.29216  -0.23697
 Alpha virt. eigenvalues --    0.00425   0.01417   0.01680   0.02421   0.03898
 Alpha virt. eigenvalues --    0.04443   0.04748   0.04896   0.05349   0.07344
 Alpha virt. eigenvalues --    0.07416   0.08095   0.08675   0.09224   0.09327

 Mulliken atomic charges:
              1
     1  C   -0.418965
     2  C   -0.021773
     3  N   -0.147037
     4  C   -0.228923
     5  C   -0.346115
     6  C   -0.183731
     7  C   -0.192546
     8  C    0.207142
     9  H    0.181484
    10  H    0.171071
    11  H    0.178447
    12  H    0.171148
    13  H    0.154626
    14  H    0.181304
    15  H    0.180298
    16  H    0.154182
    17  H    0.197107
    18  H    0.179398
    19  O   -0.578910
    20  H    0.393079
    21  O   -0.557372
    22  H    0.399150
    23  C   -0.240018
    24  H    0.158440
    25  H    0.165156
    26  O   -0.550786
    27  H    0.394144
 Sum of Mulliken atomic charges =   0.00000

 Dipole moment (field-independent basis, Debye):
    X=             -4.6373    Y=              0.2095    Z=             -0.3629  Tot=              4.6562
 Quadrupole moment (field-independent basis, Debye-Ang):
   XX=            -83.6896   YY=            -80.6460   ZZ=            -69.2097
   XY=              5.7492   XZ=              1.3700   YZ=              1.5290

 Normal termination of Gaussian 09 at Fri May 17 12:22:35 2024.
