 Gaussian 09, Revision C.01,
 Gaussian 09:  AM64L-G09RevC.01 23-Sep-2011

 ------------------------------------------------
 # mpw1pw91/6-31+G** nmr scrf=(pcm,solvent=water)
 ------------------------------------------------

 99/9=1/99;
 -------
 comment
 -------
 Charge =  0 Multiplicity = 1

                         Standard orientation:
 ---------------------------------------------------------------------
 Center     Atomic      Atomic             Coordinates (Angstroms)
 Number     Number       Type             X           Y           Z
 ---------------------------------------------------------------------
      1          6           0       -2.652668    0.159550    0.199107
      2          6           0       -1.298720    0.328463    0.923054
      3          7           0       -0.500128   -0.926241    0.641376
      4          6           0       -1.350297   -1.805768   -0.195319
      5          6           0       -2.369285   -0.891658   -0.885569
      6          6           0        0.749394   -0.506665   -0.015509
      7          6           0        0.983766    0.907164    0.530913
      8          6           0       -0.421796    1.513108    0.474905
      9          1           0       -3.400131   -0.220171    0.904847
     10          1           0       -3.026125    1.104611   -0.204181
     11          1           0       -1.453752    0.421502    2.003784
     12          1           0       -1.872092   -2.527956    0.446362
     13          1           0       -0.731224   -2.379668   -0.891267
     14          1           0       -3.267853   -1.427745   -1.208823
     15          1           0       -1.921261   -0.417184   -1.765538
     16          1           0        0.633533   -0.421557   -1.109281
     17          1           0        1.317721    0.851022    1.577083
     18          1           0       -0.536676    2.374925    1.145334
     19          8           0       -0.710980    1.912871   -0.869402
     20          1           0        0.153315    2.166686   -1.246763
     21          8           0        1.901931    1.674562   -0.243506
     22          1           0        2.614975    1.045626   -0.478085
     23          6           0        1.920760   -1.440012    0.254577
     24          1           0        2.125573   -1.484747    1.331724
     25          1           0        1.705001   -2.458320   -0.097858
     26          8           0        3.050941   -0.895647   -0.456213
     27          1           0        3.857831   -1.262713   -0.060958
 ---------------------------------------------------------------------

 SCF Done:  E(RmPW1PW91) =  -594.200642192     A.U. after   13 cycles

      1  C    Isotropic =   167.5164   Anisotropy =    23.6953

      2  C    Isotropic =   127.3984   Anisotropy =    54.0564

      3  N    Isotropic =   196.7288   Anisotropy =    71.1591

      4  C    Isotropic =   141.5556   Anisotropy =    54.3021

      5  C    Isotropic =   168.4883   Anisotropy =    24.0553

      6  C    Isotropic =   128.9802   Anisotropy =    55.7160

      7  C    Isotropic =   114.8323   Anisotropy =    42.6622

      8  C    Isotropic =   121.8075   Anisotropy =    24.0521

      9  H    Isotropic =    29.9236   Anisotropy =    12.5546

     10  H    Isotropic =    29.3560   Anisotropy =     9.1049

     11  H    Isotropic =    27.9769   Anisotropy =     9.1846

     12  H    Isotropic =    28.9308   Anisotropy =    12.1748

     13  H    Isotropic =    28.8077   Anisotropy =     8.6146

     14  H    Isotropic =    30.0943   Anisotropy =    12.7503

     15  H    Isotropic =    29.6790   Anisotropy =     7.6489

     16  H    Isotropic =    28.6851   Anisotropy =     4.2016

     17  H    Isotropic =    27.4757   Anisotropy =     4.5553

     18  H    Isotropic =    27.5494   Anisotropy =     9.0389

     19  O    Isotropic =   314.0276   Anisotropy =    46.2886

     20  H    Isotropic =    28.6261   Anisotropy =    18.2118

     21  O    Isotropic =   296.8809   Anisotropy =    36.9376

     22  H    Isotropic =    27.2912   Anisotropy =    21.9764

     23  C    Isotropic =   125.8410   Anisotropy =    59.8785

     24  H    Isotropic =    27.8498   Anisotropy =     3.9985

     25  H    Isotropic =    27.4758   Anisotropy =     5.1042

     26  O    Isotropic =   318.1229   Anisotropy =    80.5467

     27  H    Isotropic =    29.9089   Anisotropy =    21.6882

 The electronic state is 1-A.
 Alpha  occ. eigenvalues --  -19.26917 -19.25846 -19.24879 -14.41445 -10.30500
 Alpha  occ. eigenvalues --  -10.30133 -10.30065 -10.28077 -10.27823 -10.26774
 Alpha  occ. eigenvalues --  -10.24419 -10.24074  -1.07924  -1.06454  -1.04348
 Alpha  occ. eigenvalues --   -0.96420  -0.82640  -0.79295  -0.75347  -0.71560
 Alpha  occ. eigenvalues --   -0.66581  -0.61635  -0.59711  -0.58287  -0.55027
 Alpha  occ. eigenvalues --   -0.53762  -0.52463  -0.50542  -0.49275  -0.47917
 Alpha  occ. eigenvalues --   -0.46486  -0.43735  -0.43155  -0.42602  -0.40636
 Alpha  occ. eigenvalues --   -0.39963  -0.38197  -0.37911  -0.35974  -0.35505
 Alpha  occ. eigenvalues --   -0.35132  -0.34059  -0.33080  -0.30813  -0.30368
 Alpha  occ. eigenvalues --   -0.29002  -0.23468
 Alpha virt. eigenvalues --    0.00619   0.01228   0.01994   0.02242   0.03865
 Alpha virt. eigenvalues --    0.04316   0.04689   0.04950   0.05551   0.06999
 Alpha virt. eigenvalues --    0.07577   0.08166   0.08783   0.09090   0.09827

 Mulliken atomic charges:
              1
     1  C   -0.566008
     2  C    0.181491
     3  N   -0.136634
     4  C   -0.239207
     5  C   -0.208968
     6  C   -0.425529
     7  C   -0.149601
     8  C    0.133287
     9  H    0.174633
    10  H    0.180545
    11  H    0.166217
    12  H    0.163383
    13  H    0.163948
    14  H    0.168361
    15  H    0.180795
    16  H    0.185352
    17  H    0.174229
    18  H    0.156545
    19  O   -0.573565
    20  H    0.389218
    21  O   -0.596712
    22  H    0.410601
    23  C   -0.067336
    24  H    0.170698
    25  H    0.163162
    26  O   -0.602117
    27  H    0.403212
 Sum of Mulliken atomic charges =   0.00000

 Dipole moment (field-independent basis, Debye):
    X=              1.7242    Y=             -3.2513    Z=              1.6651  Tot=              4.0394
 Quadrupole moment (field-independent basis, Debye-Ang):
   XX=            -62.8816   YY=            -75.9336   ZZ=            -74.1184
   XY=             -4.4142   XZ=              1.9205   YZ=              3.2192

 Normal termination of Gaussian 09 at Fri May 17 12:17:06 2024.
