 Gaussian 09, Revision C.01,
 Gaussian 09:  AM64L-G09RevC.01 23-Sep-2011

 ------------------------------------------------
 # mpw1pw91/6-31+G** nmr scrf=(pcm,solvent=water)
 ------------------------------------------------

 99/9=1/99;
 -------
 comment
 -------
 Charge =  0 Multiplicity = 1

                         Standard orientation:
 ---------------------------------------------------------------------
 Center     Atomic      Atomic             Coordinates (Angstroms)
 Number     Number       Type             X           Y           Z
 ---------------------------------------------------------------------
      1          6           0       -2.599772    0.417449    0.018903
      2          6           0       -1.259847    0.452809    0.766346
      3          7           0       -0.569698   -0.853305    0.447514
      4          6           0       -1.442555   -1.621634   -0.461844
      5          6           0       -2.848861   -1.087084   -0.179023
      6          6           0        0.766284   -0.549264   -0.075413
      7          6           0        1.080585    0.818538    0.557395
      8          6           0       -0.251900    1.565199    0.413321
      9          1           0       -3.399115    0.920520    0.571244
     10          1           0       -2.500397    0.905356   -0.956532
     11          1           0       -1.439071    0.502997    1.848191
     12          1           0       -1.356287   -2.699459   -0.282584
     13          1           0       -1.173611   -1.441443   -1.516576
     14          1           0       -3.248080   -1.533986    0.739591
     15          1           0       -3.547932   -1.305008   -0.992437
     16          1           0        0.750490   -0.421630   -1.173159
     17          1           0        1.309287    0.687242    1.620268
     18          1           0       -0.332481    2.425785    1.085825
     19          8           0       -0.309757    2.004399   -0.950370
     20          1           0       -1.025699    2.656282   -1.022894
     21          8           0        2.206439    1.481864   -0.011813
     22          1           0        1.923166    1.775337   -0.897375
     23          6           0        1.825545   -1.602770    0.241329
     24          1           0        1.944814   -1.698030    1.331781
     25          1           0        1.528705   -2.582693   -0.148930
     26          8           0        3.073220   -1.270377   -0.381453
     27          1           0        3.178019   -0.304682   -0.276009
 ---------------------------------------------------------------------

 SCF Done:  E(RmPW1PW91) =  -594.201236961     A.U. after   13 cycles

      1  C    Isotropic =   170.1575   Anisotropy =    19.8176

      2  C    Isotropic =   127.6253   Anisotropy =    48.0726

      3  N    Isotropic =   198.9032   Anisotropy =    76.5449

      4  C    Isotropic =   138.5627   Anisotropy =    56.9863

      5  C    Isotropic =   164.9818   Anisotropy =    22.6655

      6  C    Isotropic =   125.9921   Anisotropy =    58.3081

      7  C    Isotropic =   112.0751   Anisotropy =    45.0191

      8  C    Isotropic =   122.1060   Anisotropy =    27.9514

      9  H    Isotropic =    29.9629   Anisotropy =    11.6608

     10  H    Isotropic =    29.7850   Anisotropy =     6.9962

     11  H    Isotropic =    28.0355   Anisotropy =     8.8707

     12  H    Isotropic =    28.4383   Anisotropy =     9.7158

     13  H    Isotropic =    29.2307   Anisotropy =     7.8949

     14  H    Isotropic =    29.6011   Anisotropy =    11.0516

     15  H    Isotropic =    29.4995   Anisotropy =    11.6899

     16  H    Isotropic =    28.8699   Anisotropy =     3.5757

     17  H    Isotropic =    27.4445   Anisotropy =     3.7660

     18  H    Isotropic =    27.5967   Anisotropy =     8.4521

     19  O    Isotropic =   302.6603   Anisotropy =    44.2075

     20  H    Isotropic =    29.7400   Anisotropy =    20.5054

     21  O    Isotropic =   294.2505   Anisotropy =    39.7584

     22  H    Isotropic =    28.6794   Anisotropy =    13.7885

     23  C    Isotropic =   126.5731   Anisotropy =    57.5643

     24  H    Isotropic =    27.8651   Anisotropy =     4.5185

     25  H    Isotropic =    27.6555   Anisotropy =     5.0276

     26  O    Isotropic =   314.3913   Anisotropy =    40.9977

     27  H    Isotropic =    28.2022   Anisotropy =    20.1206

 The electronic state is 1-A.
 Alpha  occ. eigenvalues --  -19.26951 -19.26567 -19.24783 -14.41436 -10.31030
 Alpha  occ. eigenvalues --  -10.30893 -10.29265 -10.28016 -10.27935 -10.26912
 Alpha  occ. eigenvalues --  -10.24738 -10.24713  -1.08532  -1.05998  -1.04735
 Alpha  occ. eigenvalues --   -0.96674  -0.83171  -0.79662  -0.74786  -0.71852
 Alpha  occ. eigenvalues --   -0.66881  -0.62461  -0.60641  -0.58410  -0.55832
 Alpha  occ. eigenvalues --   -0.53387  -0.51904  -0.50912  -0.49414  -0.46701
 Alpha  occ. eigenvalues --   -0.45106  -0.45037  -0.43335  -0.42709  -0.40736
 Alpha  occ. eigenvalues --   -0.40181  -0.39382  -0.38052  -0.36937  -0.35829
 Alpha  occ. eigenvalues --   -0.35290  -0.34673  -0.33435  -0.30993  -0.29581
 Alpha  occ. eigenvalues --   -0.29354  -0.23254
 Alpha virt. eigenvalues --    0.00381   0.01651   0.01970   0.02285   0.03887
 Alpha virt. eigenvalues --    0.04449   0.04850   0.04951   0.05556   0.07063
 Alpha virt. eigenvalues --    0.07510   0.08023   0.08577   0.09269   0.09451

 Mulliken atomic charges:
              1
     1  C   -0.434565
     2  C   -0.023294
     3  N   -0.107956
     4  C   -0.175958
     5  C   -0.396127
     6  C   -0.232150
     7  C   -0.253470
     8  C    0.320733
     9  H    0.178703
    10  H    0.173056
    11  H    0.171076
    12  H    0.167210
    13  H    0.150132
    14  H    0.179317
    15  H    0.178335
    16  H    0.169313
    17  H    0.195545
    18  H    0.173842
    19  O   -0.646648
    20  H    0.403486
    21  O   -0.577567
    22  H    0.402518
    23  C   -0.172630
    24  H    0.155121
    25  H    0.162937
    26  O   -0.556292
    27  H    0.395334
 Sum of Mulliken atomic charges =   0.00000

 Dipole moment (field-independent basis, Debye):
    X=             -5.8995    Y=              3.0288    Z=              0.4063  Tot=              6.6440
 Quadrupole moment (field-independent basis, Debye-Ang):
   XX=            -82.3921   YY=            -69.9188   ZZ=            -72.6012
   XY=              0.7789   XZ=              2.3366   YZ=             -0.3522

 Normal termination of Gaussian 09 at Fri May 17 12:47:37 2024.
