 Gaussian 09, Revision C.01,
 Gaussian 09:  AM64L-G09RevC.01 23-Sep-2011

 ------------------------------------------------
 # mpw1pw91/6-31+G** nmr scrf=(pcm,solvent=water)
 ------------------------------------------------

 99/9=1/99;
 -------
 comment
 -------
 Charge =  0 Multiplicity = 1

                         Standard orientation:
 ---------------------------------------------------------------------
 Center     Atomic      Atomic             Coordinates (Angstroms)
 Number     Number       Type             X           Y           Z
 ---------------------------------------------------------------------
      1          6           0        2.074948   -0.554195    0.173105
      2          6           0        0.985972   -0.194077   -0.860744
      3          7           0       -0.208123   -0.975898   -0.469740
      4          6           0        0.308429   -2.269132    0.034473
      5          6           0        1.772181   -2.031803    0.515790
      6          6           0       -0.927698   -0.175984    0.563974
      7          6           0       -0.564874    1.297672    0.290315
      8          6           0        0.477957    1.253766   -0.865894
      9          1           0        3.084102   -0.408243   -0.223341
     10          1           0        1.978251    0.072809    1.065607
     11          1           0        1.314357   -0.505917   -1.859771
     12          1           0        0.290921   -3.004807   -0.777080
     13          1           0       -0.348152   -2.646369    0.823624
     14          1           0        2.454380   -2.706512   -0.011366
     15          1           0        1.886585   -2.228158    1.585991
     16          1           0       -0.593505   -0.422533    1.582422
     17          1           0       -1.441415    1.885394    0.002490
     18          1           0       -0.033660    1.449061   -1.813043
     19          8           0        1.487402    2.245851   -0.740238
     20          1           0        1.681386    2.300318    0.213857
     21          8           0        0.007529    1.860011    1.482002
     22          1           0       -0.075897    2.826186    1.415689
     23          6           0       -2.423357   -0.468126    0.458124
     24          1           0       -2.616727   -1.510233    0.755581
     25          1           0       -2.990656    0.184122    1.130238
     26          8           0       -2.891010   -0.229792   -0.870121
     27          1           0       -2.185814   -0.611125   -1.430706
 ---------------------------------------------------------------------

 SCF Done:  E(RmPW1PW91) =  -594.197973746     A.U. after   13 cycles

      1  C    Isotropic =   168.6874   Anisotropy =    25.4213

      2  C    Isotropic =   123.9076   Anisotropy =    57.4780

      3  N    Isotropic =   196.2276   Anisotropy =    67.5374

      4  C    Isotropic =   143.0949   Anisotropy =    64.3275

      5  C    Isotropic =   170.8615   Anisotropy =    29.6919

      6  C    Isotropic =   122.2219   Anisotropy =    39.3642

      7  C    Isotropic =   118.9102   Anisotropy =    29.0737

      8  C    Isotropic =   122.1384   Anisotropy =    47.5358

      9  H    Isotropic =    29.8955   Anisotropy =    10.6904

     10  H    Isotropic =    29.8172   Anisotropy =     7.0732

     11  H    Isotropic =    28.0851   Anisotropy =     8.6623

     12  H    Isotropic =    28.6117   Anisotropy =    11.3599

     13  H    Isotropic =    28.6679   Anisotropy =     8.7543

     14  H    Isotropic =    29.8552   Anisotropy =    12.0990

     15  H    Isotropic =    29.4814   Anisotropy =    10.8246

     16  H    Isotropic =    28.8294   Anisotropy =     4.1788

     17  H    Isotropic =    27.4042   Anisotropy =     6.3613

     18  H    Isotropic =    27.3514   Anisotropy =     5.9676

     19  O    Isotropic =   311.2424   Anisotropy =    37.8391

     20  H    Isotropic =    28.9374   Anisotropy =    13.9890

     21  O    Isotropic =   299.0189   Anisotropy =    76.0088

     22  H    Isotropic =    29.7070   Anisotropy =    22.2095

     23  C    Isotropic =   132.8966   Anisotropy =    42.3051

     24  H    Isotropic =    27.9741   Anisotropy =     7.7322

     25  H    Isotropic =    27.9764   Anisotropy =     7.2417

     26  O    Isotropic =   324.7526   Anisotropy =    41.5174

     27  H    Isotropic =    28.6800   Anisotropy =    16.1065

 The electronic state is 1-A.
 Alpha  occ. eigenvalues --  -19.26942 -19.25820 -19.24913 -14.42110 -10.30996
 Alpha  occ. eigenvalues --  -10.30397 -10.29411 -10.28425 -10.27534 -10.27152
 Alpha  occ. eigenvalues --  -10.24531 -10.24442  -1.08298  -1.05429  -1.05179
 Alpha  occ. eigenvalues --   -0.97108  -0.82091  -0.79017  -0.75748  -0.71388
 Alpha  occ. eigenvalues --   -0.67410  -0.61841  -0.60001  -0.58286  -0.55369
 Alpha  occ. eigenvalues --   -0.54807  -0.51557  -0.49891  -0.47619  -0.47178
 Alpha  occ. eigenvalues --   -0.46498  -0.45008  -0.44642  -0.41797  -0.41361
 Alpha  occ. eigenvalues --   -0.40398  -0.37941  -0.37452  -0.36955  -0.35899
 Alpha  occ. eigenvalues --   -0.35008  -0.34005  -0.32935  -0.31606  -0.29656
 Alpha  occ. eigenvalues --   -0.28575  -0.24762
 Alpha virt. eigenvalues --    0.00213   0.01296   0.01745   0.02385   0.03908
 Alpha virt. eigenvalues --    0.04156   0.04607   0.04802   0.05331   0.07203
 Alpha virt. eigenvalues --    0.07718   0.08051   0.08372   0.08918   0.09829

 Mulliken atomic charges:
              1
     1  C   -0.250484
     2  C   -0.093972
     3  N   -0.206078
     4  C   -0.141327
     5  C   -0.434532
     6  C   -0.043726
     7  C    0.134931
     8  C   -0.298188
     9  H    0.178188
    10  H    0.179572
    11  H    0.177131
    12  H    0.170499
    13  H    0.167970
    14  H    0.176493
    15  H    0.177914
    16  H    0.189058
    17  H    0.183318
    18  H    0.179401
    19  O   -0.499721
    20  H    0.375383
    21  O   -0.612125
    22  H    0.406143
    23  C   -0.275698
    24  H    0.150080
    25  H    0.168625
    26  O   -0.544911
    27  H    0.386057
 Sum of Mulliken atomic charges =   0.00000

 Dipole moment (field-independent basis, Debye):
    X=              1.5735    Y=             -1.0167    Z=              2.1854  Tot=              2.8785
 Quadrupole moment (field-independent basis, Debye-Ang):
   XX=            -83.7952   YY=            -67.1449   ZZ=            -74.7397
   XY=             -4.7332   XZ=             -3.0674   YZ=              3.9453

 Normal termination of Gaussian 09 at Fri May 17 12:12:38 2024.
