 Gaussian 09, Revision C.01,
 Gaussian 09:  AM64L-G09RevC.01 23-Sep-2011

 ------------------------------------------------
 # mpw1pw91/6-31+G** nmr scrf=(pcm,solvent=water)
 ------------------------------------------------

 99/9=1/99;
 -------
 comment
 -------
 Charge =  0 Multiplicity = 1

                         Standard orientation:
 ---------------------------------------------------------------------
 Center     Atomic      Atomic             Coordinates (Angstroms)
 Number     Number       Type             X           Y           Z
 ---------------------------------------------------------------------
      1          6           0       -2.618922    0.425570    0.026862
      2          6           0       -1.272358    0.460167    0.765239
      3          7           0       -0.583686   -0.844663    0.440065
      4          6           0       -1.455256   -1.605053   -0.477046
      5          6           0       -2.862244   -1.078584   -0.182568
      6          6           0        0.751902   -0.530656   -0.078365
      7          6           0        1.066216    0.833775    0.554370
      8          6           0       -0.270537    1.572915    0.413613
      9          1           0       -3.415329    0.917632    0.593289
     10          1           0       -2.532157    0.924958   -0.942727
     11          1           0       -1.445162    0.506126    1.848032
     12          1           0       -1.364261   -2.684515   -0.310559
     13          1           0       -1.189996   -1.411148   -1.530352
     14          1           0       -3.254384   -1.536105    0.733922
     15          1           0       -3.564679   -1.292651   -0.994130
     16          1           0        0.734577   -0.392069   -1.173897
     17          1           0        1.300453    0.701985    1.621088
     18          1           0       -0.354588    2.427884    1.097334
     19          8           0       -0.422083    2.016662   -0.938084
     20          1           0        0.484239    2.222564   -1.237210
     21          8           0        2.112545    1.543145   -0.103736
     22          1           0        2.786612    0.862937   -0.308761
     23          6           0        1.806329   -1.583640    0.232615
     24          1           0        1.923991   -1.699575    1.316940
     25          1           0        1.526056   -2.558782   -0.189669
     26          8           0        3.035673   -1.119373   -0.360727
     27          1           0        3.770567   -1.567036    0.088302
 ---------------------------------------------------------------------

 SCF Done:  E(RmPW1PW91) =  -594.201688210     A.U. after   13 cycles

      1  C    Isotropic =   170.5590   Anisotropy =    20.4416

      2  C    Isotropic =   127.0495   Anisotropy =    50.9963

      3  N    Isotropic =   197.5962   Anisotropy =    77.6006

      4  C    Isotropic =   138.4138   Anisotropy =    57.1159

      5  C    Isotropic =   164.4587   Anisotropy =    22.9849

      6  C    Isotropic =   127.1106   Anisotropy =    59.3723

      7  C    Isotropic =   112.2455   Anisotropy =    41.8982

      8  C    Isotropic =   123.6615   Anisotropy =    29.2433

      9  H    Isotropic =    29.9692   Anisotropy =    11.6196

     10  H    Isotropic =    29.3698   Anisotropy =     7.0696

     11  H    Isotropic =    27.9221   Anisotropy =     8.9368

     12  H    Isotropic =    28.4866   Anisotropy =     9.6602

     13  H    Isotropic =    29.1967   Anisotropy =     7.8756

     14  H    Isotropic =    29.5880   Anisotropy =    10.9651

     15  H    Isotropic =    29.4981   Anisotropy =    11.6676

     16  H    Isotropic =    28.7251   Anisotropy =     3.6757

     17  H    Isotropic =    27.2987   Anisotropy =     4.2170

     18  H    Isotropic =    27.6040   Anisotropy =     8.9978

     19  O    Isotropic =   309.3495   Anisotropy =    43.7763

     20  H    Isotropic =    28.4928   Anisotropy =    17.9040

     21  O    Isotropic =   293.1546   Anisotropy =    40.5610

     22  H    Isotropic =    27.2664   Anisotropy =    21.8797

     23  C    Isotropic =   126.6902   Anisotropy =    58.9046

     24  H    Isotropic =    27.8577   Anisotropy =     4.2136

     25  H    Isotropic =    27.3849   Anisotropy =     5.5184

     26  O    Isotropic =   317.8984   Anisotropy =    79.7697

     27  H    Isotropic =    29.8706   Anisotropy =    21.5670

 The electronic state is 1-A.
 Alpha  occ. eigenvalues --  -19.26883 -19.25837 -19.25054 -14.41368 -10.30568
 Alpha  occ. eigenvalues --  -10.30212 -10.30059 -10.28069 -10.27859 -10.26841
 Alpha  occ. eigenvalues --  -10.24574 -10.24342  -1.07922  -1.06463  -1.04462
 Alpha  occ. eigenvalues --   -0.96553  -0.83047  -0.79387  -0.75277  -0.71617
 Alpha  occ. eigenvalues --   -0.66564  -0.61205  -0.60354  -0.58154  -0.54980
 Alpha  occ. eigenvalues --   -0.53716  -0.52836  -0.51238  -0.48622  -0.48053
 Alpha  occ. eigenvalues --   -0.46619  -0.43707  -0.43022  -0.42586  -0.41212
 Alpha  occ. eigenvalues --   -0.39719  -0.38481  -0.37822  -0.36138  -0.35720
 Alpha  occ. eigenvalues --   -0.35219  -0.33826  -0.33333  -0.30993  -0.30205
 Alpha  occ. eigenvalues --   -0.29179  -0.23242
 Alpha virt. eigenvalues --    0.00720   0.01222   0.02100   0.02307   0.03825
 Alpha virt. eigenvalues --    0.04406   0.04978   0.05027   0.05605   0.07010
 Alpha virt. eigenvalues --    0.07536   0.08101   0.08971   0.09275   0.09681

 Mulliken atomic charges:
              1
     1  C   -0.480519
     2  C    0.066792
     3  N   -0.130934
     4  C   -0.199758
     5  C   -0.354077
     6  C   -0.308967
     7  C   -0.191346
     8  C    0.191672
     9  H    0.172879
    10  H    0.188687
    11  H    0.168274
    12  H    0.166489
    13  H    0.149874
    14  H    0.177249
    15  H    0.176577
    16  H    0.170642
    17  H    0.174902
    18  H    0.157986
    19  O   -0.576272
    20  H    0.389020
    21  O   -0.596827
    22  H    0.410224
    23  C   -0.062467
    24  H    0.170497
    25  H    0.166262
    26  O   -0.597844
    27  H    0.400984
 Sum of Mulliken atomic charges =   0.00000

 Dipole moment (field-independent basis, Debye):
    X=              1.1626    Y=             -3.4310    Z=              1.9379  Tot=              4.1084
 Quadrupole moment (field-independent basis, Debye-Ang):
   XX=            -63.7111   YY=            -75.2531   ZZ=            -73.6685
   XY=             -5.7977   XZ=              2.8086   YZ=              2.4907

 Normal termination of Gaussian 09 at Fri May 17 12:14:41 2024.
