 Gaussian 09, Revision C.01,
 Gaussian 09:  AM64L-G09RevC.01 23-Sep-2011

 ------------------------------------------------
 # mpw1pw91/6-31+G** nmr scrf=(pcm,solvent=water)
 ------------------------------------------------

 99/9=1/99;
 -------
 comment
 -------
 Charge =  0 Multiplicity = 1

                         Standard orientation:
 ---------------------------------------------------------------------
 Center     Atomic      Atomic             Coordinates (Angstroms)
 Number     Number       Type             X           Y           Z
 ---------------------------------------------------------------------
      1          6           0       -2.487803   -0.552126    0.350572
      2          6           0       -1.216196    0.083840    0.950562
      3          7           0       -0.074437   -0.836568    0.602886
      4          6           0       -0.624921   -1.949524   -0.206213
      5          6           0       -1.961561   -1.456007   -0.775478
      6          6           0        0.976412   -0.038691   -0.063892
      7          6           0        0.708098    1.394756    0.430194
      8          6           0       -0.822052    1.471496    0.427002
      9          1           0       -2.987501   -1.157436    1.115420
     10          1           0       -3.201132    0.200406    0.003447
     11          1           0       -1.308550    0.160410    2.040454
     12          1           0       -0.792286   -2.824675    0.436414
     13          1           0        0.092652   -2.246744   -0.975855
     14          1           0       -2.644151   -2.276899   -1.019346
     15          1           0       -1.794264   -0.870675   -1.685676
     16          1           0        0.857294   -0.042528   -1.159602
     17          1           0        1.075540    1.513127    1.459256
     18          1           0       -1.197129    2.274708    1.074718
     19          8           0       -1.296245    1.671772   -0.909268
     20          1           0       -0.687728    2.317052   -1.312541
     21          8           0        1.229905    2.424182   -0.404967
     22          1           0        2.199311    2.366130   -0.392863
     23          6           0        2.390445   -0.514622    0.256425
     24          1           0        3.112577    0.206298   -0.145115
     25          1           0        2.525537   -0.563168    1.346139
     26          8           0        2.727680   -1.768471   -0.350326
     27          1           0        2.205633   -2.454632    0.096406
 ---------------------------------------------------------------------

 SCF Done:  E(RmPW1PW91) =  -594.196601882     A.U. after   13 cycles

      1  C    Isotropic =   167.9993   Anisotropy =    23.5474

      2  C    Isotropic =   128.0992   Anisotropy =    53.2606

      3  N    Isotropic =   190.8663   Anisotropy =    78.7381

      4  C    Isotropic =   139.7794   Anisotropy =    58.2470

      5  C    Isotropic =   168.0431   Anisotropy =    24.5579

      6  C    Isotropic =   123.9270   Anisotropy =    39.1488

      7  C    Isotropic =   119.8409   Anisotropy =    50.1104

      8  C    Isotropic =   120.6200   Anisotropy =    22.4290

      9  H    Isotropic =    29.9117   Anisotropy =    12.5480

     10  H    Isotropic =    29.3977   Anisotropy =     9.2737

     11  H    Isotropic =    27.9635   Anisotropy =     9.1817

     12  H    Isotropic =    28.6422   Anisotropy =    11.6346

     13  H    Isotropic =    28.6269   Anisotropy =     7.3333

     14  H    Isotropic =    30.0871   Anisotropy =    12.7215

     15  H    Isotropic =    29.6343   Anisotropy =     7.7241

     16  H    Isotropic =    28.6109   Anisotropy =     4.3755

     17  H    Isotropic =    27.8238   Anisotropy =     4.5829

     18  H    Isotropic =    27.5288   Anisotropy =     8.7767

     19  O    Isotropic =   315.1499   Anisotropy =    45.4251

     20  H    Isotropic =    29.0208   Anisotropy =    18.7470

     21  O    Isotropic =   304.8962   Anisotropy =    31.3373

     22  H    Isotropic =    29.7426   Anisotropy =    19.3142

     23  C    Isotropic =   125.4872   Anisotropy =    48.6728

     24  H    Isotropic =    27.9916   Anisotropy =     5.3414

     25  H    Isotropic =    28.0473   Anisotropy =     5.5487

     26  O    Isotropic =   307.7202   Anisotropy =    22.9812

     27  H    Isotropic =    30.0177   Anisotropy =    14.7475

 The electronic state is 1-A.
 Alpha  occ. eigenvalues --  -19.27012 -19.25750 -19.25173 -14.41231 -10.31081
 Alpha  occ. eigenvalues --  -10.30347 -10.29723 -10.27901 -10.27848 -10.26742
 Alpha  occ. eigenvalues --  -10.24473 -10.24044  -1.08256  -1.05772  -1.04988
 Alpha  occ. eigenvalues --   -0.96180  -0.82699  -0.79353  -0.75331  -0.71877
 Alpha  occ. eigenvalues --   -0.66560  -0.61987  -0.60093  -0.57761  -0.55713
 Alpha  occ. eigenvalues --   -0.53676  -0.52402  -0.50355  -0.49679  -0.48275
 Alpha  occ. eigenvalues --   -0.45542  -0.43392  -0.42713  -0.42230  -0.41326
 Alpha  occ. eigenvalues --   -0.39549  -0.38750  -0.38165  -0.36339  -0.35371
 Alpha  occ. eigenvalues --   -0.34835  -0.34339  -0.32799  -0.31227  -0.30327
 Alpha  occ. eigenvalues --   -0.28947  -0.23137
 Alpha virt. eigenvalues --    0.00346   0.01226   0.01950   0.02110   0.03619
 Alpha virt. eigenvalues --    0.04192   0.04560   0.05217   0.05393   0.07150
 Alpha virt. eigenvalues --    0.07329   0.08117   0.08342   0.08839   0.09717

 Mulliken atomic charges:
              1
     1  C   -0.508995
     2  C    0.078392
     3  N   -0.191445
     4  C   -0.256069
     5  C   -0.256910
     6  C   -0.045649
     7  C   -0.203254
     8  C    0.139093
     9  H    0.174933
    10  H    0.179857
    11  H    0.166648
    12  H    0.163978
    13  H    0.163188
    14  H    0.167758
    15  H    0.181873
    16  H    0.179230
    17  H    0.180028
    18  H    0.159846
    19  O   -0.576471
    20  H    0.392007
    21  O   -0.583919
    22  H    0.393997
    23  C   -0.250202
    24  H    0.150682
    25  H    0.167253
    26  O   -0.542331
    27  H    0.376483
 Sum of Mulliken atomic charges =   0.00000

 Dipole moment (field-independent basis, Debye):
    X=              0.4162    Y=              0.4309    Z=              2.1651  Tot=              2.2464
 Quadrupole moment (field-independent basis, Debye-Ang):
   XX=            -75.6598   YY=            -71.8813   ZZ=            -74.0518
   XY=              9.9015   XZ=              0.6935   YZ=              0.8076

 Normal termination of Gaussian 09 at Fri May 17 12:47:07 2024.
