 Gaussian 09, Revision C.01,
 Gaussian 09:  AM64L-G09RevC.01 23-Sep-2011

 ------------------------------------------------
 # mpw1pw91/6-31+G** nmr scrf=(pcm,solvent=water)
 ------------------------------------------------

 99/9=1/99;
 -------
 comment
 -------
 Charge =  0 Multiplicity = 1

                         Standard orientation:
 ---------------------------------------------------------------------
 Center     Atomic      Atomic             Coordinates (Angstroms)
 Number     Number       Type             X           Y           Z
 ---------------------------------------------------------------------
      1          6           0       -2.476219   -0.140773    0.556106
      2          6           0       -1.014747    0.086252    1.002317
      3          7           0       -0.187484   -0.955273    0.287878
      4          6           0       -1.108529   -1.769270   -0.542061
      5          6           0       -2.349976   -0.899238   -0.774792
      6          6           0        0.875480   -0.261536   -0.473566
      7          6           0        1.057930    1.052761    0.303005
      8          6           0       -0.383129    1.442631    0.650339
      9          1           0       -2.989310   -0.764980    1.296387
     10          1           0       -3.032740    0.795909    0.467438
     11          1           0       -0.920454   -0.054797    2.084746
     12          1           0       -1.383209   -2.681343    0.003727
     13          1           0       -0.609252   -2.079671   -1.465065
     14          1           0       -3.239004   -1.490571   -1.017192
     15          1           0       -2.172384   -0.197535   -1.596913
     16          1           0        0.565944   -0.012915   -1.500673
     17          1           0        1.621924    0.862103    1.225273
     18          1           0       -0.432316    2.144129    1.493450
     19          8           0       -1.013280    2.025591   -0.495431
     20          1           0       -0.314181    2.536361   -0.944184
     21          8           0        1.659902    2.107587   -0.442371
     22          1           0        2.505057    1.785825   -0.798139
     23          6           0        2.124834   -1.142740   -0.534766
     24          1           0        1.952218   -1.977917   -1.230923
     25          1           0        2.981408   -0.570599   -0.911333
     26          8           0        2.458972   -1.632607    0.763161
     27          1           0        1.580071   -1.820179    1.155896
 ---------------------------------------------------------------------

 SCF Done:  E(RmPW1PW91) =  -594.201586704     A.U. after   12 cycles

      1  C    Isotropic =   167.4293   Anisotropy =    23.9844

      2  C    Isotropic =   128.4605   Anisotropy =    52.8161

      3  N    Isotropic =   199.7814   Anisotropy =    78.3512

      4  C    Isotropic =   142.3932   Anisotropy =    54.5927

      5  C    Isotropic =   168.2948   Anisotropy =    22.5907

      6  C    Isotropic =   124.8263   Anisotropy =    48.8425

      7  C    Isotropic =   122.2924   Anisotropy =    53.9840

      8  C    Isotropic =   120.6068   Anisotropy =    23.0644

      9  H    Isotropic =    29.8246   Anisotropy =    12.4581

     10  H    Isotropic =    29.3239   Anisotropy =     9.3123

     11  H    Isotropic =    28.0050   Anisotropy =     8.9109

     12  H    Isotropic =    28.8622   Anisotropy =    12.0989

     13  H    Isotropic =    28.7719   Anisotropy =     8.7195

     14  H    Isotropic =    30.0295   Anisotropy =    12.8110

     15  H    Isotropic =    29.6931   Anisotropy =     7.9661

     16  H    Isotropic =    28.7701   Anisotropy =     2.9869

     17  H    Isotropic =    27.3033   Anisotropy =     3.8578

     18  H    Isotropic =    27.4607   Anisotropy =     8.7055

     19  O    Isotropic =   315.4019   Anisotropy =    46.2121

     20  H    Isotropic =    28.8507   Anisotropy =    18.7218

     21  O    Isotropic =   306.9155   Anisotropy =    27.6088

     22  H    Isotropic =    29.6770   Anisotropy =    19.2591

     23  C    Isotropic =   136.1371   Anisotropy =    54.7499

     24  H    Isotropic =    27.8991   Anisotropy =     8.0669

     25  H    Isotropic =    28.1557   Anisotropy =     6.6294

     26  O    Isotropic =   329.5944   Anisotropy =    48.9238

     27  H    Isotropic =    28.2378   Anisotropy =    17.5223

 The electronic state is 1-A.
 Alpha  occ. eigenvalues --  -19.27059 -19.25100 -19.24735 -14.41984 -10.30854
 Alpha  occ. eigenvalues --  -10.30378 -10.29548 -10.28290 -10.28060 -10.27014
 Alpha  occ. eigenvalues --  -10.24572 -10.24200  -1.08317  -1.05292  -1.04924
 Alpha  occ. eigenvalues --   -0.96482  -0.82616  -0.79508  -0.75170  -0.71822
 Alpha  occ. eigenvalues --   -0.66903  -0.62057  -0.60003  -0.57891  -0.54943
 Alpha  occ. eigenvalues --   -0.54280  -0.51877  -0.50022  -0.49000  -0.48452
 Alpha  occ. eigenvalues --   -0.45740  -0.44784  -0.43047  -0.42726  -0.40967
 Alpha  occ. eigenvalues --   -0.39522  -0.38616  -0.37870  -0.36307  -0.35463
 Alpha  occ. eigenvalues --   -0.34790  -0.34221  -0.32961  -0.31282  -0.29942
 Alpha  occ. eigenvalues --   -0.28691  -0.24133
 Alpha virt. eigenvalues --    0.00252   0.01323   0.01978   0.02353   0.03999
 Alpha virt. eigenvalues --    0.04208   0.04424   0.04947   0.05540   0.07257
 Alpha virt. eigenvalues --    0.07603   0.08131   0.08619   0.08847   0.09632

 Mulliken atomic charges:
              1
     1  C   -0.533331
     2  C    0.140265
     3  N   -0.297045
     4  C   -0.275199
     5  C   -0.256564
     6  C    0.143337
     7  C   -0.225974
     8  C    0.102356
     9  H    0.176056
    10  H    0.181329
    11  H    0.169812
    12  H    0.166898
    13  H    0.166012
    14  H    0.169739
    15  H    0.182757
    16  H    0.181112
    17  H    0.185481
    18  H    0.159667
    19  O   -0.579736
    20  H    0.391986
    21  O   -0.563072
    22  H    0.386035
    23  C   -0.312683
    24  H    0.154118
    25  H    0.152107
    26  O   -0.558004
    27  H    0.392541
 Sum of Mulliken atomic charges =   0.00000

 Dipole moment (field-independent basis, Debye):
    X=             -0.5787    Y=             -0.4430    Z=             -1.2636  Tot=              1.4587
 Quadrupole moment (field-independent basis, Debye-Ang):
   XX=            -76.4753   YY=            -79.2970   ZZ=            -69.6839
   XY=              9.8982   XZ=             -8.2127   YZ=              3.3383

 Normal termination of Gaussian 09 at Fri May 17 12:09:51 2024.
