 Gaussian 09, Revision C.01,
 Gaussian 09:  AM64L-G09RevC.01 23-Sep-2011

 ------------------------------------------------
 # mpw1pw91/6-31+G** nmr scrf=(pcm,solvent=water)
 ------------------------------------------------

 99/9=1/99;
 -------
 comment
 -------
 Charge =  0 Multiplicity = 1

                         Standard orientation:
 ---------------------------------------------------------------------
 Center     Atomic      Atomic             Coordinates (Angstroms)
 Number     Number       Type             X           Y           Z
 ---------------------------------------------------------------------
      1          6           0       -2.544856    0.071514    0.357340
      2          6           0       -1.112645    0.328724    0.866708
      3          7           0       -0.265686   -0.789641    0.323855
      4          6           0       -1.060736   -1.480391   -0.708513
      5          6           0       -2.494488   -1.367844   -0.191818
      6          6           0        1.024919   -0.232482   -0.128087
      7          6           0        1.058656    1.202281    0.430173
      8          6           0       -0.421438    1.622068    0.423506
      9          1           0       -3.289901    0.199566    1.147772
     10          1           0       -2.788998    0.768619   -0.449105
     11          1           0       -1.080930    0.301113    1.963547
     12          1           0       -0.729341   -2.517583   -0.831521
     13          1           0       -0.968215   -0.985205   -1.690699
     14          1           0       -2.663347   -2.094027    0.612084
     15          1           0       -3.236707   -1.552907   -0.974513
     16          1           0        1.053008   -0.172149   -1.227375
     17          1           0        1.441520    1.208817    1.458673
     18          1           0       -0.621138    2.458110    1.108048
     19          8           0       -0.790983    1.978306   -0.910789
     20          1           0        0.019188    2.364959   -1.296853
     21          8           0        1.871833    2.026316   -0.407514
     22          1           0        2.033335    2.858404    0.069770
     23          6           0        2.211609   -1.072727    0.333105
     24          1           0        3.144335   -0.631068   -0.033405
     25          1           0        2.250065   -1.090074    1.432164
     26          8           0        2.165693   -2.405875   -0.185445
     27          1           0        1.358453   -2.805915    0.179933
 ---------------------------------------------------------------------

 SCF Done:  E(RmPW1PW91) =  -594.200461426     A.U. after   13 cycles

      1  C    Isotropic =   171.5659   Anisotropy =    21.1946

      2  C    Isotropic =   127.7862   Anisotropy =    53.7204

      3  N    Isotropic =   189.6538   Anisotropy =    91.4194

      4  C    Isotropic =   135.1560   Anisotropy =    57.4590

      5  C    Isotropic =   164.7953   Anisotropy =    25.7182

      6  C    Isotropic =   124.5038   Anisotropy =    46.2004

      7  C    Isotropic =   115.5735   Anisotropy =    47.9908

      8  C    Isotropic =   121.3543   Anisotropy =    22.8765

      9  H    Isotropic =    29.8877   Anisotropy =    11.7143

     10  H    Isotropic =    29.3187   Anisotropy =     7.5110

     11  H    Isotropic =    27.9713   Anisotropy =     8.6671

     12  H    Isotropic =    28.4648   Anisotropy =     8.6520

     13  H    Isotropic =    28.8687   Anisotropy =     7.0922

     14  H    Isotropic =    29.5205   Anisotropy =    10.9441

     15  H    Isotropic =    29.5394   Anisotropy =    11.5268

     16  H    Isotropic =    28.6875   Anisotropy =     4.1684

     17  H    Isotropic =    27.4867   Anisotropy =     3.8737

     18  H    Isotropic =    27.9377   Anisotropy =     8.9105

     19  O    Isotropic =   308.1534   Anisotropy =    39.8580

     20  H    Isotropic =    28.4338   Anisotropy =    18.0529

     21  O    Isotropic =   303.8793   Anisotropy =    96.4966

     22  H    Isotropic =    30.0186   Anisotropy =    22.2692

     23  C    Isotropic =   125.9694   Anisotropy =    49.7031

     24  H    Isotropic =    27.7793   Anisotropy =     5.7100

     25  H    Isotropic =    28.0173   Anisotropy =     5.7874

     26  O    Isotropic =   305.5205   Anisotropy =    25.8092

     27  H    Isotropic =    29.8840   Anisotropy =    14.2611

 The electronic state is 1-A.
 Alpha  occ. eigenvalues --  -19.27305 -19.25477 -19.25146 -14.41318 -10.31219
 Alpha  occ. eigenvalues --  -10.30106 -10.29344 -10.28012 -10.27880 -10.26852
 Alpha  occ. eigenvalues --  -10.24530 -10.24432  -1.08455  -1.05626  -1.04968
 Alpha  occ. eigenvalues --   -0.96370  -0.83037  -0.79220  -0.75333  -0.71581
 Alpha  occ. eigenvalues --   -0.66592  -0.61288  -0.60628  -0.57405  -0.55989
 Alpha  occ. eigenvalues --   -0.53588  -0.52952  -0.50610  -0.49366  -0.47526
 Alpha  occ. eigenvalues --   -0.45658  -0.43781  -0.43435  -0.43160  -0.40246
 Alpha  occ. eigenvalues --   -0.39313  -0.38408  -0.37920  -0.36047  -0.35523
 Alpha  occ. eigenvalues --   -0.34868  -0.34562  -0.33490  -0.31189  -0.30403
 Alpha  occ. eigenvalues --   -0.29035  -0.23247
 Alpha virt. eigenvalues --    0.00364   0.01243   0.02204   0.02458   0.03727
 Alpha virt. eigenvalues --    0.04273   0.04642   0.05167   0.05512   0.07058
 Alpha virt. eigenvalues --    0.07407   0.08076   0.08606   0.09216   0.10027

 Mulliken atomic charges:
              1
     1  C   -0.515286
     2  C    0.079568
     3  N   -0.230796
     4  C   -0.175717
     5  C   -0.409127
     6  C    0.118249
     7  C   -0.191262
     8  C    0.114792
     9  H    0.173478
    10  H    0.187654
    11  H    0.167568
    12  H    0.157332
    13  H    0.154114
    14  H    0.177249
    15  H    0.175544
    16  H    0.165825
    17  H    0.178608
    18  H    0.162030
    19  O   -0.583170
    20  H    0.392812
    21  O   -0.606579
    22  H    0.404133
    23  C   -0.250629
    24  H    0.166033
    25  H    0.155923
    26  O   -0.545448
    27  H    0.377099
 Sum of Mulliken atomic charges =   0.00000

 Dipole moment (field-independent basis, Debye):
    X=             -0.9327    Y=              2.8963    Z=              3.1733  Tot=              4.3964
 Quadrupole moment (field-independent basis, Debye-Ang):
   XX=            -77.7239   YY=            -69.8967   ZZ=            -72.8347
   XY=             13.3538   XZ=              3.0808   YZ=              3.6610

 Normal termination of Gaussian 09 at Fri May 17 12:17:53 2024.
