 Gaussian 09, Revision C.01,
 Gaussian 09:  AM64L-G09RevC.01 23-Sep-2011

 ------------------------------------------------
 # mpw1pw91/6-31+G** nmr scrf=(pcm,solvent=water)
 ------------------------------------------------

 99/9=1/99;
 -------
 comment
 -------
 Charge =  0 Multiplicity = 1

                         Standard orientation:
 ---------------------------------------------------------------------
 Center     Atomic      Atomic             Coordinates (Angstroms)
 Number     Number       Type             X           Y           Z
 ---------------------------------------------------------------------
      1          6           0        2.654219   -0.086035    0.074651
      2          6           0        1.343675    0.343934   -0.614353
      3          7           0        0.466563   -0.880553   -0.677131
      4          6           0        1.224125   -1.987341   -0.045614
      5          6           0        2.245301   -1.324142    0.886365
      6          6           0       -0.791667   -0.553812    0.029072
      7          6           0       -0.913107    0.968154   -0.100406
      8          6           0        0.526050    1.417536    0.130364
      9          1           0        3.403617   -0.362332   -0.676308
     10          1           0        3.075349    0.721378    0.682844
     11          1           0        1.541859    0.716676   -1.627968
     12          1           0        1.744647   -2.564915   -0.820860
     13          1           0        0.538953   -2.670636    0.464664
     14          1           0        3.088466   -1.977428    1.133070
     15          1           0        1.762137   -1.026631    1.825560
     16          1           0       -0.727450   -0.784488    1.106443
     17          1           0       -1.205335    1.226284   -1.132651
     18          1           0        0.730828    1.379083    1.206739
     19          8           0        0.825188    2.755332   -0.258988
     20          1           0        0.678162    2.815488   -1.219465
     21          8           0       -1.821340    1.549994    0.829156
     22          1           0       -2.630016    1.005551    0.754560
     23          6           0       -1.995114   -1.296607   -0.535811
     24          1           0       -2.131088   -1.040215   -1.593987
     25          1           0       -1.853480   -2.384220   -0.462365
     26          8           0       -3.142278   -0.888690    0.233830
     27          1           0       -3.936043   -1.112952   -0.277951
 ---------------------------------------------------------------------

 SCF Done:  E(RmPW1PW91) =  -594.200086070     A.U. after   13 cycles

      1  C    Isotropic =   163.4309   Anisotropy =    24.0130

      2  C    Isotropic =   125.4649   Anisotropy =    56.1516

      3  N    Isotropic =   202.2167   Anisotropy =    65.4455

      4  C    Isotropic =   141.0347   Anisotropy =    54.0495

      5  C    Isotropic =   171.4264   Anisotropy =    19.6022

      6  C    Isotropic =   128.5459   Anisotropy =    48.6788

      7  C    Isotropic =   112.9127   Anisotropy =    27.0196

      8  C    Isotropic =   112.8853   Anisotropy =    29.7531

      9  H    Isotropic =    29.7905   Anisotropy =    11.7399

     10  H    Isotropic =    29.6789   Anisotropy =     9.3167

     11  H    Isotropic =    28.5286   Anisotropy =     6.8748

     12  H    Isotropic =    28.9497   Anisotropy =    11.8943

     13  H    Isotropic =    28.9063   Anisotropy =     8.4837

     14  H    Isotropic =    30.0585   Anisotropy =    12.6586

     15  H    Isotropic =    29.8113   Anisotropy =     8.7977

     16  H    Isotropic =    28.9447   Anisotropy =     5.2903

     17  H    Isotropic =    27.7619   Anisotropy =     1.6555

     18  H    Isotropic =    28.0422   Anisotropy =     3.1838

     19  O    Isotropic =   289.4626   Anisotropy =    89.3379

     20  H    Isotropic =    30.8035   Anisotropy =    16.0874

     21  O    Isotropic =   290.4626   Anisotropy =    31.7183

     22  H    Isotropic =    27.6849   Anisotropy =    20.2487

     23  C    Isotropic =   125.5462   Anisotropy =    60.3295

     24  H    Isotropic =    27.8616   Anisotropy =     3.7586

     25  H    Isotropic =    27.5252   Anisotropy =     4.8656

     26  O    Isotropic =   318.2383   Anisotropy =    81.1293

     27  H    Isotropic =    29.9967   Anisotropy =    21.5119

 The electronic state is 1-A.
 Alpha  occ. eigenvalues --  -19.26786 -19.26108 -19.25066 -14.41802 -10.30411
 Alpha  occ. eigenvalues --  -10.30283 -10.30066 -10.28327 -10.28045 -10.27034
 Alpha  occ. eigenvalues --  -10.24768 -10.24590  -1.07340  -1.06532  -1.04997
 Alpha  occ. eigenvalues --   -0.96946  -0.82928  -0.79558  -0.75568  -0.71901
 Alpha  occ. eigenvalues --   -0.66332  -0.62231  -0.60590  -0.59063  -0.55174
 Alpha  occ. eigenvalues --   -0.53860  -0.51576  -0.50947  -0.49515  -0.47602
 Alpha  occ. eigenvalues --   -0.45024  -0.44644  -0.43523  -0.42716  -0.41359
 Alpha  occ. eigenvalues --   -0.40446  -0.38606  -0.37410  -0.36426  -0.35939
 Alpha  occ. eigenvalues --   -0.35573  -0.34957  -0.33715  -0.31129  -0.29461
 Alpha  occ. eigenvalues --   -0.28950  -0.23738
 Alpha virt. eigenvalues --    0.00688   0.01353   0.01666   0.02265   0.03702
 Alpha virt. eigenvalues --    0.04034   0.04578   0.05021   0.05139   0.06652
 Alpha virt. eigenvalues --    0.07894   0.08278   0.08510   0.09411   0.09558

 Mulliken atomic charges:
              1
     1  C   -0.563024
     2  C    0.197023
     3  N   -0.156876
     4  C   -0.230825
     5  C   -0.222353
     6  C   -0.317437
     7  C   -0.070910
     8  C   -0.093167
     9  H    0.179218
    10  H    0.179729
    11  H    0.157921
    12  H    0.166781
    13  H    0.167105
    14  H    0.174950
    15  H    0.175266
    16  H    0.183868
    17  H    0.164692
    18  H    0.180241
    19  O   -0.530683
    20  H    0.372763
    21  O   -0.553261
    22  H    0.403107
    23  C   -0.100041
    24  H    0.171447
    25  H    0.162792
    26  O   -0.599614
    27  H    0.401287
 Sum of Mulliken atomic charges =   0.00000

 Dipole moment (field-independent basis, Debye):
    X=             -0.3910    Y=             -4.4896    Z=             -2.9931  Tot=              5.4100
 Quadrupole moment (field-independent basis, Debye-Ang):
   XX=            -62.1647   YY=            -81.4045   ZZ=            -72.9272
   XY=              3.1477   XZ=              7.2275   YZ=             -6.9049

 Normal termination of Gaussian 09 at Fri May 17 12:10:49 2024.
