 Gaussian 09, Revision C.01,
 Gaussian 09:  AM64L-G09RevC.01 23-Sep-2011

 ------------------------------------------------
 # mpw1pw91/6-31+G** nmr scrf=(pcm,solvent=water)
 ------------------------------------------------

 99/9=1/99;
 -------
 comment
 -------
 Charge =  0 Multiplicity = 1

                         Standard orientation:
 ---------------------------------------------------------------------
 Center     Atomic      Atomic             Coordinates (Angstroms)
 Number     Number       Type             X           Y           Z
 ---------------------------------------------------------------------
      1          6           0        2.316261   -0.347033   -0.401367
      2          6           0        0.969335    0.212302   -0.963277
      3          7           0       -0.102696   -0.760073   -0.574368
      4          6           0        0.598620   -2.020333   -0.251230
      5          6           0        1.927294   -1.607030    0.395868
      6          6           0       -0.870818   -0.179244    0.568202
      7          6           0       -0.272555    1.209852    0.865946
      8          6           0        0.515842    1.570032   -0.407612
      9          1           0        2.978321   -0.605553   -1.234520
     10          1           0        2.840390    0.389200    0.214453
     11          1           0        1.033508    0.285178   -2.054211
     12          1           0        0.787636   -2.570042   -1.182336
     13          1           0       -0.031924   -2.652911    0.379318
     14          1           0        2.686184   -2.394559    0.348338
     15          1           0        1.765266   -1.355821    1.449863
     16          1           0       -0.772612   -0.819019    1.454107
     17          1           0       -1.049026    1.959719    1.065850
     18          1           0        1.361820    2.215206   -0.159125
     19          8           0       -0.270133    2.321609   -1.339245
     20          1           0       -0.917044    1.723955   -1.749031
     21          8           0        0.669193    1.179703    1.947315
     22          1           0        0.212944    0.799283    2.716574
     23          6           0       -2.356458   -0.114127    0.200951
     24          1           0       -2.951192    0.180819    1.071782
     25          1           0       -2.519931    0.634472   -0.589699
     26          8           0       -2.833983   -1.393326   -0.216060
     27          1           0       -2.191206   -1.679820   -0.891747
 ---------------------------------------------------------------------

 SCF Done:  E(RmPW1PW91) =  -594.195106925     A.U. after   13 cycles

      1  C    Isotropic =   163.5845   Anisotropy =    31.5481

      2  C    Isotropic =   120.9039   Anisotropy =    47.4091

      3  N    Isotropic =   186.9757   Anisotropy =    67.7658

      4  C    Isotropic =   137.5273   Anisotropy =    59.8631

      5  C    Isotropic =   169.7497   Anisotropy =    21.1137

      6  C    Isotropic =   116.0391   Anisotropy =    29.5077

      7  C    Isotropic =   113.0009   Anisotropy =    22.9623

      8  C    Isotropic =   109.4562   Anisotropy =    20.4669

      9  H    Isotropic =    29.6227   Anisotropy =    11.5223

     10  H    Isotropic =    29.7910   Anisotropy =     8.3426

     11  H    Isotropic =    28.0620   Anisotropy =     8.0832

     12  H    Isotropic =    28.6209   Anisotropy =    11.5004

     13  H    Isotropic =    28.6251   Anisotropy =     8.7613

     14  H    Isotropic =    30.0703   Anisotropy =    12.6362

     15  H    Isotropic =    29.6938   Anisotropy =     8.3750

     16  H    Isotropic =    28.9972   Anisotropy =     6.0763

     17  H    Isotropic =    27.7781   Anisotropy =     4.9303

     18  H    Isotropic =    27.5553   Anisotropy =     5.0858

     19  O    Isotropic =   270.4370   Anisotropy =    30.8945

     20  H    Isotropic =    30.1924   Anisotropy =    13.0083

     21  O    Isotropic =   278.3754   Anisotropy =    83.3375

     22  H    Isotropic =    30.4778   Anisotropy =    17.8546

     23  C    Isotropic =   129.3751   Anisotropy =    47.0689

     24  H    Isotropic =    28.0332   Anisotropy =     6.7051

     25  H    Isotropic =    28.4783   Anisotropy =     6.3058

     26  O    Isotropic =   311.7334   Anisotropy =    30.5294

     27  H    Isotropic =    29.0740   Anisotropy =    14.8037

 The electronic state is 1-A.
 Alpha  occ. eigenvalues --  -19.26155 -19.26050 -19.25297 -14.42089 -10.30836
 Alpha  occ. eigenvalues --  -10.30768 -10.29686 -10.28422 -10.28064 -10.27066
 Alpha  occ. eigenvalues --  -10.24547 -10.24212  -1.07264  -1.05857  -1.05645
 Alpha  occ. eigenvalues --   -0.96553  -0.82274  -0.79360  -0.75749  -0.71737
 Alpha  occ. eigenvalues --   -0.66723  -0.62248  -0.60677  -0.59063  -0.55381
 Alpha  occ. eigenvalues --   -0.53924  -0.52070  -0.49629  -0.48328  -0.46946
 Alpha  occ. eigenvalues --   -0.45577  -0.44767  -0.43543  -0.43408  -0.41609
 Alpha  occ. eigenvalues --   -0.39770  -0.38883  -0.37113  -0.36909  -0.35835
 Alpha  occ. eigenvalues --   -0.35102  -0.33841  -0.33463  -0.30683  -0.29785
 Alpha  occ. eigenvalues --   -0.29547  -0.24287
 Alpha virt. eigenvalues --    0.00694   0.01298   0.02009   0.02588   0.03654
 Alpha virt. eigenvalues --    0.03824   0.04385   0.04602   0.04949   0.07226
 Alpha virt. eigenvalues --    0.07547   0.07590   0.08123   0.09131   0.09712

 Mulliken atomic charges:
              1
     1  C   -0.512763
     2  C    0.225791
     3  N   -0.297130
     4  C   -0.284394
     5  C   -0.221378
     6  C   -0.170096
     7  C    0.184621
     8  C   -0.317878
     9  H    0.174633
    10  H    0.177051
    11  H    0.175616
    12  H    0.170600
    13  H    0.172710
    14  H    0.171174
    15  H    0.180066
    16  H    0.171889
    17  H    0.174178
    18  H    0.183696
    19  O   -0.511926
    20  H    0.376364
    21  O   -0.538944
    22  H    0.379985
    23  C   -0.224183
    24  H    0.171848
    25  H    0.137943
    26  O   -0.532080
    27  H    0.382607
 Sum of Mulliken atomic charges =   0.00000

 Dipole moment (field-independent basis, Debye):
    X=              1.3962    Y=             -1.6687    Z=              1.1966  Tot=              2.4831
 Quadrupole moment (field-independent basis, Debye-Ang):
   XX=            -80.7783   YY=            -81.9091   ZZ=            -67.8919
   XY=             -8.9354   XZ=             -3.6866   YZ=              2.5263

 Normal termination of Gaussian 09 at Fri May 17 12:30:31 2024.
