 Gaussian 09, Revision C.01,
 Gaussian 09:  AM64L-G09RevC.01 23-Sep-2011

 ------------------------------------------------
 # mpw1pw91/6-31+G** nmr scrf=(pcm,solvent=water)
 ------------------------------------------------

 99/9=1/99;
 -------
 comment
 -------
 Charge =  0 Multiplicity = 1

                         Standard orientation:
 ---------------------------------------------------------------------
 Center     Atomic      Atomic             Coordinates (Angstroms)
 Number     Number       Type             X           Y           Z
 ---------------------------------------------------------------------
      1          6           0       -2.463939    0.606583   -0.083545
      2          6           0       -1.045856    0.582928    0.508153
      3          7           0       -0.497825   -0.786313    0.203375
      4          6           0       -1.541553   -1.561807   -0.500020
      5          6           0       -2.854797   -0.879367   -0.104340
      6          6           0        0.779843   -0.637293   -0.517326
      7          6           0        1.277503    0.745376   -0.067881
      8          6           0       -0.015166    1.567407   -0.052943
      9          1           0       -3.150938    1.228439    0.498367
     10          1           0       -2.436981    0.999091   -1.107713
     11          1           0       -1.090010    0.725047    1.596406
     12          1           0       -1.512694   -2.619308   -0.214769
     13          1           0       -1.400104   -1.509475   -1.592412
     14          1           0       -3.168150   -1.206987    0.894354
     15          1           0       -3.666363   -1.103615   -0.803306
     16          1           0        0.626231   -0.606357   -1.612431
     17          1           0        1.678676    0.687636    0.949447
     18          1           0       -0.264522    1.825641   -1.094715
     19          8           0        0.040507    2.749488    0.742495
     20          1           0        0.742903    3.306534    0.365318
     21          8           0        2.323727    1.291481   -0.862739
     22          1           0        1.987821    1.356008   -1.774171
     23          6           0        1.740905   -1.786580   -0.221228
     24          1           0        1.343905   -2.718309   -0.652383
     25          1           0        2.709599   -1.586801   -0.691427
     26          8           0        1.977014   -1.943368    1.178357
     27          1           0        1.093778   -1.877636    1.585696
 ---------------------------------------------------------------------

 SCF Done:  E(RmPW1PW91) =  -594.202442622     A.U. after   13 cycles

      1  C    Isotropic =   161.8204   Anisotropy =    25.9583

      2  C    Isotropic =   128.5583   Anisotropy =    52.3832

      3  N    Isotropic =   205.8035   Anisotropy =    71.5585

      4  C    Isotropic =   139.8418   Anisotropy =    56.6083

      5  C    Isotropic =   164.7954   Anisotropy =    21.9498

      6  C    Isotropic =   122.0191   Anisotropy =    43.4477

      7  C    Isotropic =   115.4842   Anisotropy =    44.2913

      8  C    Isotropic =   110.8834   Anisotropy =    17.7924

      9  H    Isotropic =    29.4391   Anisotropy =     9.7036

     10  H    Isotropic =    30.0090   Anisotropy =     8.2021

     11  H    Isotropic =    28.2070   Anisotropy =     6.8298

     12  H    Isotropic =    28.3740   Anisotropy =     9.4363

     13  H    Isotropic =    29.2021   Anisotropy =     8.4938

     14  H    Isotropic =    29.5637   Anisotropy =    10.7149

     15  H    Isotropic =    29.5012   Anisotropy =    11.6944

     16  H    Isotropic =    29.2326   Anisotropy =     3.7786

     17  H    Isotropic =    27.4075   Anisotropy =     2.3704

     18  H    Isotropic =    27.9650   Anisotropy =     2.6680

     19  O    Isotropic =   297.9481   Anisotropy =    42.8228

     20  H    Isotropic =    29.3673   Anisotropy =    18.4021

     21  O    Isotropic =   293.8359   Anisotropy =    89.7875

     22  H    Isotropic =    30.8872   Anisotropy =    15.9610

     23  C    Isotropic =   135.9383   Anisotropy =    57.4887

     24  H    Isotropic =    27.8807   Anisotropy =     7.5752

     25  H    Isotropic =    27.9181   Anisotropy =     6.5250

     26  O    Isotropic =   329.0425   Anisotropy =    46.1213

     27  H    Isotropic =    29.2173   Anisotropy =    15.8701

 The electronic state is 1-A.
 Alpha  occ. eigenvalues --  -19.26523 -19.26094 -19.25064 -14.41920 -10.30556
 Alpha  occ. eigenvalues --  -10.30436 -10.29392 -10.28420 -10.28127 -10.27135
 Alpha  occ. eigenvalues --  -10.24808 -10.24763  -1.07642  -1.05822  -1.05378
 Alpha  occ. eigenvalues --   -0.96932  -0.83134  -0.79696  -0.75227  -0.71636
 Alpha  occ. eigenvalues --   -0.66904  -0.62736  -0.60858  -0.57776  -0.56107
 Alpha  occ. eigenvalues --   -0.52901  -0.51531  -0.50216  -0.49107  -0.48568
 Alpha  occ. eigenvalues --   -0.45297  -0.44889  -0.44033  -0.41671  -0.40890
 Alpha  occ. eigenvalues --   -0.40077  -0.39019  -0.37870  -0.37040  -0.35849
 Alpha  occ. eigenvalues --   -0.35154  -0.34681  -0.33092  -0.32121  -0.29908
 Alpha  occ. eigenvalues --   -0.28068  -0.23800
 Alpha virt. eigenvalues --    0.00766   0.01178   0.01935   0.02214   0.03794
 Alpha virt. eigenvalues --    0.04177   0.04508   0.04763   0.05252   0.06970
 Alpha virt. eigenvalues --    0.07907   0.08504   0.08582   0.09083   0.09257

 Mulliken atomic charges:
              1
     1  C   -0.422518
     2  C   -0.032153
     3  N   -0.230036
     4  C   -0.267065
     5  C   -0.349290
     6  C    0.218112
     7  C   -0.236350
     8  C    0.040780
     9  H    0.179867
    10  H    0.171081
    11  H    0.173589
    12  H    0.169721
    13  H    0.154939
    14  H    0.180173
    15  H    0.178658
    16  H    0.154435
    17  H    0.193456
    18  H    0.162617
    19  O   -0.545945
    20  H    0.385831
    21  O   -0.517814
    22  H    0.373041
    23  C   -0.283329
    24  H    0.154029
    25  H    0.166522
    26  O   -0.557750
    27  H    0.385399
 Sum of Mulliken atomic charges =   0.00000

 Dipole moment (field-independent basis, Debye):
    X=             -3.7241    Y=              0.0852    Z=             -4.6026  Tot=              5.9211
 Quadrupole moment (field-independent basis, Debye-Ang):
   XX=            -81.3235   YY=            -75.8089   ZZ=            -70.5293
   XY=              6.4749   XZ=             -4.8385   YZ=             -1.5648

 Normal termination of Gaussian 09 at Fri May 17 12:17:56 2024.
