 Gaussian 09, Revision C.01,
 Gaussian 09:  AM64L-G09RevC.01 23-Sep-2011

 ------------------------------------------------
 # mpw1pw91/6-31+G** nmr scrf=(pcm,solvent=water)
 ------------------------------------------------

 99/9=1/99;
 -------
 comment
 -------
 Charge =  0 Multiplicity = 1

                         Standard orientation:
 ---------------------------------------------------------------------
 Center     Atomic      Atomic             Coordinates (Angstroms)
 Number     Number       Type             X           Y           Z
 ---------------------------------------------------------------------
      1          6           0        2.540816    0.024538   -0.216839
      2          6           0        1.107934    0.319351   -0.709700
      3          7           0        0.287005   -0.913795   -0.409656
      4          6           0        1.206565   -1.904877    0.201570
      5          6           0        2.348718   -1.091194    0.821324
      6          6           0       -0.830769   -0.514492    0.481378
      7          6           0       -1.046157    0.964972    0.137865
      8          6           0        0.387863    1.474140   -0.005088
      9          1           0        3.155839   -0.340284   -1.047536
     10          1           0        3.022716    0.921783    0.184999
     11          1           0        1.099946    0.522966   -1.786917
     12          1           0        1.600500   -2.569430   -0.578162
     13          1           0        0.665240   -2.527827    0.919744
     14          1           0        3.253150   -1.684521    0.989103
     15          1           0        2.034576   -0.671979    1.785243
     16          1           0       -0.555826   -0.582115    1.548215
     17          1           0       -1.557654    1.053705   -0.826360
     18          1           0        0.799246    1.616881    1.007511
     19          8           0        0.525518    2.676870   -0.757895
     20          1           0        0.045942    3.368049   -0.270159
     21          8           0       -1.848292    1.684349    1.068062
     22          1           0       -1.405062    1.630211    1.933260
     23          6           0       -2.050923   -1.402235    0.248719
     24          1           0       -1.846912   -2.416712    0.623997
     25          1           0       -2.909334   -1.006738    0.802321
     26          8           0       -2.408310   -1.441405   -1.132897
     27          1           0       -1.547011   -1.497148   -1.591204
 ---------------------------------------------------------------------

 SCF Done:  E(RmPW1PW91) =  -594.202656877     A.U. after   13 cycles

      1  C    Isotropic =   162.7774   Anisotropy =    25.5854

      2  C    Isotropic =   128.8480   Anisotropy =    55.3945

      3  N    Isotropic =   204.5336   Anisotropy =    65.1419

      4  C    Isotropic =   142.6000   Anisotropy =    52.5913

      5  C    Isotropic =   171.3462   Anisotropy =    18.6269

      6  C    Isotropic =   125.0639   Anisotropy =    41.0564

      7  C    Isotropic =   118.7867   Anisotropy =    43.6805

      8  C    Isotropic =   111.8627   Anisotropy =    25.4445

      9  H    Isotropic =    29.7107   Anisotropy =    11.7098

     10  H    Isotropic =    29.7265   Anisotropy =     9.5199

     11  H    Isotropic =    28.2694   Anisotropy =     6.9476

     12  H    Isotropic =    28.9465   Anisotropy =    12.0092

     13  H    Isotropic =    28.8439   Anisotropy =     8.6560

     14  H    Isotropic =    30.0218   Anisotropy =    12.6960

     15  H    Isotropic =    29.8889   Anisotropy =     9.1036

     16  H    Isotropic =    29.2626   Anisotropy =     4.2774

     17  H    Isotropic =    27.6737   Anisotropy =     2.1992

     18  H    Isotropic =    28.1629   Anisotropy =     3.5892

     19  O    Isotropic =   297.6365   Anisotropy =    44.8442

     20  H    Isotropic =    29.3070   Anisotropy =    18.8597

     21  O    Isotropic =   297.2928   Anisotropy =    97.3035

     22  H    Isotropic =    31.0655   Anisotropy =    16.1008

     23  C    Isotropic =   135.7241   Anisotropy =    53.5813

     24  H    Isotropic =    27.9853   Anisotropy =     7.8704

     25  H    Isotropic =    27.9385   Anisotropy =     6.6346

     26  O    Isotropic =   330.5972   Anisotropy =    46.2344

     27  H    Isotropic =    28.7182   Anisotropy =    16.2649

 The electronic state is 1-A.
 Alpha  occ. eigenvalues --  -19.26527 -19.26149 -19.24882 -14.42254 -10.30589
 Alpha  occ. eigenvalues --  -10.30432 -10.29365 -10.28501 -10.28190 -10.27201
 Alpha  occ. eigenvalues --  -10.24823 -10.24686  -1.07662  -1.05863  -1.05307
 Alpha  occ. eigenvalues --   -0.96960  -0.82829  -0.79799  -0.75425  -0.71639
 Alpha  occ. eigenvalues --   -0.66869  -0.63233  -0.60321  -0.57954  -0.56139
 Alpha  occ. eigenvalues --   -0.53213  -0.51423  -0.50570  -0.48788  -0.47765
 Alpha  occ. eigenvalues --   -0.45499  -0.45234  -0.44602  -0.41830  -0.40996
 Alpha  occ. eigenvalues --   -0.40199  -0.38580  -0.37390  -0.36900  -0.36067
 Alpha  occ. eigenvalues --   -0.35390  -0.34413  -0.33348  -0.32258  -0.29771
 Alpha  occ. eigenvalues --   -0.28086  -0.24430
 Alpha virt. eigenvalues --    0.00619   0.01201   0.01898   0.02269   0.03731
 Alpha virt. eigenvalues --    0.04179   0.04227   0.04771   0.05161   0.07128
 Alpha virt. eigenvalues --    0.07852   0.08127   0.08589   0.09081   0.09304

 Mulliken atomic charges:
              1
     1  C   -0.532194
     2  C    0.129242
     3  N   -0.295859
     4  C   -0.272402
     5  C   -0.248898
     6  C    0.198842
     7  C   -0.190568
     8  C   -0.051711
     9  H    0.180044
    10  H    0.180112
    11  H    0.173708
    12  H    0.169917
    13  H    0.168406
    14  H    0.175839
    15  H    0.175871
    16  H    0.169013
    17  H    0.193044
    18  H    0.167188
    19  O   -0.542099
    20  H    0.385152
    21  O   -0.518601
    22  H    0.372716
    23  C   -0.329484
    24  H    0.150462
    25  H    0.166849
    26  O   -0.561920
    27  H    0.387332
 Sum of Mulliken atomic charges =   0.00000

 Dipole moment (field-independent basis, Debye):
    X=              4.2128    Y=             -0.7224    Z=              4.5882  Tot=              6.2706
 Quadrupole moment (field-independent basis, Debye-Ang):
   XX=            -84.4799   YY=            -73.3962   ZZ=            -70.7486
   XY=             -4.3033   XZ=             -3.6430   YZ=              2.1219

 Normal termination of Gaussian 09 at Fri May 17 12:15:21 2024.
