 Gaussian 09, Revision C.01,
 Gaussian 09:  AM64L-G09RevC.01 23-Sep-2011

 ------------------------------------------------
 # mpw1pw91/6-31+G** nmr scrf=(pcm,solvent=water)
 ------------------------------------------------

 99/9=1/99;
 -------
 comment
 -------
 Charge =  0 Multiplicity = 1

                         Standard orientation:
 ---------------------------------------------------------------------
 Center     Atomic      Atomic             Coordinates (Angstroms)
 Number     Number       Type             X           Y           Z
 ---------------------------------------------------------------------
      1          6           0        2.305800   -0.385276   -0.374914
      2          6           0        0.974614    0.184601   -0.963126
      3          7           0       -0.118453   -0.759216   -0.567679
      4          6           0        0.555401   -2.034251   -0.245600
      5          6           0        1.894406   -1.651931    0.402092
      6          6           0       -0.864904   -0.157785    0.580001
      7          6           0       -0.254163    1.226330    0.849236
      8          6           0        0.534520    1.556410   -0.437732
      9          1           0        2.988528   -0.635260   -1.193706
     10          1           0        2.815393    0.342617    0.262633
     11          1           0        1.051320    0.233100   -2.054565
     12          1           0        0.731117   -2.586439   -1.177757
     13          1           0       -0.087843   -2.653681    0.385069
     14          1           0        2.638362   -2.452438    0.338076
     15          1           0        1.742424   -1.417771    1.461385
     16          1           0       -0.753782   -0.779905    1.475678
     17          1           0       -1.018564    1.992290    1.034834
     18          1           0        1.386117    2.205480   -0.215190
     19          8           0       -0.257513    2.286098   -1.383349
     20          1           0       -0.901711    1.675348   -1.778225
     21          8           0        0.614922    1.112429    1.984036
     22          1           0        1.055151    1.972410    2.096717
     23          6           0       -2.355357   -0.086418    0.234117
     24          1           0       -2.936041    0.209427    1.113995
     25          1           0       -2.527452    0.664185   -0.552731
     26          8           0       -2.842852   -1.363097   -0.178290
     27          1           0       -2.212210   -1.648381   -0.866081
 ---------------------------------------------------------------------

 SCF Done:  E(RmPW1PW91) =  -594.195786154     A.U. after   13 cycles

      1  C    Isotropic =   163.7163   Anisotropy =    31.8772

      2  C    Isotropic =   121.2610   Anisotropy =    47.2461

      3  N    Isotropic =   186.9649   Anisotropy =    67.1430

      4  C    Isotropic =   137.6024   Anisotropy =    60.4181

      5  C    Isotropic =   169.9632   Anisotropy =    21.4505

      6  C    Isotropic =   119.7530   Anisotropy =    33.5988

      7  C    Isotropic =   113.0650   Anisotropy =    24.9467

      8  C    Isotropic =   108.0902   Anisotropy =    18.1571

      9  H    Isotropic =    29.6030   Anisotropy =    11.5146

     10  H    Isotropic =    29.8191   Anisotropy =     8.2041

     11  H    Isotropic =    28.0816   Anisotropy =     8.1649

     12  H    Isotropic =    28.6083   Anisotropy =    11.5449

     13  H    Isotropic =    28.5771   Anisotropy =     8.7307

     14  H    Isotropic =    30.0690   Anisotropy =    12.6246

     15  H    Isotropic =    29.6379   Anisotropy =     8.4604

     16  H    Isotropic =    28.7661   Anisotropy =     6.0858

     17  H    Isotropic =    27.7970   Anisotropy =     4.8029

     18  H    Isotropic =    27.7444   Anisotropy =     5.0558

     19  O    Isotropic =   269.7412   Anisotropy =    30.6856

     20  H    Isotropic =    30.1768   Anisotropy =    13.0398

     21  O    Isotropic =   280.7339   Anisotropy =    89.4979

     22  H    Isotropic =    30.2391   Anisotropy =    19.1287

     23  C    Isotropic =   129.1399   Anisotropy =    47.9114

     24  H    Isotropic =    27.9940   Anisotropy =     6.8203

     25  H    Isotropic =    28.4394   Anisotropy =     6.3291

     26  O    Isotropic =   311.3490   Anisotropy =    30.7308

     27  H    Isotropic =    29.0192   Anisotropy =    14.7265

 The electronic state is 1-A.
 Alpha  occ. eigenvalues --  -19.26202 -19.26112 -19.25240 -14.42044 -10.30859
 Alpha  occ. eigenvalues --  -10.30834 -10.29610 -10.28283 -10.28080 -10.27042
 Alpha  occ. eigenvalues --  -10.24572 -10.24193  -1.07298  -1.05870  -1.05603
 Alpha  occ. eigenvalues --   -0.96550  -0.82289  -0.79223  -0.75828  -0.71421
 Alpha  occ. eigenvalues --   -0.67088  -0.62347  -0.60651  -0.58808  -0.55430
 Alpha  occ. eigenvalues --   -0.54192  -0.51206  -0.49575  -0.49127  -0.47448
 Alpha  occ. eigenvalues --   -0.45622  -0.44267  -0.43523  -0.42480  -0.41492
 Alpha  occ. eigenvalues --   -0.39909  -0.38730  -0.37528  -0.37152  -0.35766
 Alpha  occ. eigenvalues --   -0.34998  -0.33901  -0.33319  -0.31832  -0.29870
 Alpha  occ. eigenvalues --   -0.28400  -0.24405
 Alpha virt. eigenvalues --    0.00688   0.01461   0.01916   0.02614   0.03502
 Alpha virt. eigenvalues --    0.03776   0.04232   0.04748   0.05094   0.07154
 Alpha virt. eigenvalues --    0.07481   0.07762   0.08287   0.09057   0.09821

 Mulliken atomic charges:
              1
     1  C   -0.512028
     2  C    0.169571
     3  N   -0.315714
     4  C   -0.268933
     5  C   -0.217948
     6  C   -0.117648
     7  C    0.158993
     8  C   -0.323915
     9  H    0.174624
    10  H    0.176153
    11  H    0.176760
    12  H    0.170390
    13  H    0.173684
    14  H    0.171026
    15  H    0.181269
    16  H    0.184393
    17  H    0.176277
    18  H    0.176930
    19  O   -0.512486
    20  H    0.377771
    21  O   -0.537236
    22  H    0.380013
    23  C   -0.205940
    24  H    0.171794
    25  H    0.137604
    26  O   -0.528095
    27  H    0.382690
 Sum of Mulliken atomic charges =   0.00000

 Dipole moment (field-independent basis, Debye):
    X=              3.1895    Y=              0.7478    Z=             -0.0544  Tot=              3.2764
 Quadrupole moment (field-independent basis, Debye-Ang):
   XX=            -78.5896   YY=            -74.4330   ZZ=            -74.7657
   XY=             -4.5581   XZ=              0.2030   YZ=              7.3071

 Normal termination of Gaussian 09 at Fri May 17 12:49:48 2024.
