 Gaussian 09, Revision C.01,
 Gaussian 09:  AM64L-G09RevC.01 23-Sep-2011

 ------------------------------------------------
 # mpw1pw91/6-31+G** nmr scrf=(pcm,solvent=water)
 ------------------------------------------------

 99/9=1/99;
 -------
 comment
 -------
 Charge =  0 Multiplicity = 1

                         Standard orientation:
 ---------------------------------------------------------------------
 Center     Atomic      Atomic             Coordinates (Angstroms)
 Number     Number       Type             X           Y           Z
 ---------------------------------------------------------------------
      1          6           0       -1.989840    1.604952   -0.057765
      2          6           0       -1.206825    0.423792   -0.662802
      3          7           0        0.248581    0.792434   -0.596026
      4          6           0        0.335617    2.116165    0.065564
      5          6           0       -0.963434    2.279366    0.864601
      6          6           0        0.972374   -0.288996    0.114509
      7          6           0        0.067650   -1.513440   -0.041762
      8          6           0       -1.327756   -0.904845    0.099518
      9          1           0       -2.299313    2.299005   -0.847925
     10          1           0       -2.893456    1.267060    0.460583
     11          1           0       -1.508488    0.248735   -1.704794
     12          1           0        0.405991    2.903766   -0.696984
     13          1           0        1.240042    2.173949    0.676009
     14          1           0       -1.202180    3.324563    1.086622
     15          1           0       -0.891781    1.739422    1.817322
     16          1           0        1.049615   -0.076437    1.195705
     17          1           0        0.170326   -1.936042   -1.054466
     18          1           0       -1.511945   -0.719478    1.164438
     19          8           0       -2.395867   -1.747537   -0.324830
     20          1           0       -2.269817   -1.913869   -1.275731
     21          8           0        0.386337   -2.501219    0.934417
     22          1           0       -0.210689   -3.252232    0.776073
     23          6           0        2.383998   -0.523025   -0.413682
     24          1           0        2.787600   -1.440392    0.039283
     25          1           0        2.357460   -0.663023   -1.498973
     26          8           0        3.269169    0.579021   -0.179380
     27          1           0        3.328750    0.691999    0.784286
 ---------------------------------------------------------------------

 SCF Done:  E(RmPW1PW91) =  -594.197618659     A.U. after   13 cycles

      1  C    Isotropic =   164.2702   Anisotropy =    23.2433

      2  C    Isotropic =   126.7268   Anisotropy =    55.7450

      3  N    Isotropic =   195.4060   Anisotropy =    73.2220

      4  C    Isotropic =   138.4427   Anisotropy =    57.0425

      5  C    Isotropic =   171.5033   Anisotropy =    19.1766

      6  C    Isotropic =   124.9692   Anisotropy =    33.1795

      7  C    Isotropic =   117.0515   Anisotropy =    37.6164

      8  C    Isotropic =   111.7471   Anisotropy =    27.3631

      9  H    Isotropic =    29.8107   Anisotropy =    11.8224

     10  H    Isotropic =    29.7351   Anisotropy =     9.3943

     11  H    Isotropic =    28.5240   Anisotropy =     7.0320

     12  H    Isotropic =    28.6643   Anisotropy =    11.3258

     13  H    Isotropic =    28.7135   Anisotropy =     7.4518

     14  H    Isotropic =    30.0887   Anisotropy =    12.6126

     15  H    Isotropic =    29.8850   Anisotropy =     8.8825

     16  H    Isotropic =    29.0239   Anisotropy =     5.3578

     17  H    Isotropic =    28.1782   Anisotropy =     1.8160

     18  H    Isotropic =    28.2134   Anisotropy =     3.5468

     19  O    Isotropic =   292.8890   Anisotropy =    91.2898

     20  H    Isotropic =    30.9122   Anisotropy =    16.4527

     21  O    Isotropic =   299.3835   Anisotropy =    41.8391

     22  H    Isotropic =    29.3874   Anisotropy =    18.9661

     23  C    Isotropic =   125.2430   Anisotropy =    48.3588

     24  H    Isotropic =    27.5381   Anisotropy =     5.3817

     25  H    Isotropic =    28.2294   Anisotropy =     5.1647

     26  O    Isotropic =   305.4307   Anisotropy =    83.5019

     27  H    Isotropic =    31.0818   Anisotropy =    16.0045

 The electronic state is 1-A.
 Alpha  occ. eigenvalues --  -19.26390 -19.26269 -19.25595 -14.41417 -10.30838
 Alpha  occ. eigenvalues --  -10.30372 -10.29406 -10.28410 -10.27947 -10.26766
 Alpha  occ. eigenvalues --  -10.24718 -10.24482  -1.07612  -1.05890  -1.05616
 Alpha  occ. eigenvalues --   -0.96667  -0.82998  -0.79324  -0.75533  -0.71670
 Alpha  occ. eigenvalues --   -0.66464  -0.62650  -0.60795  -0.58672  -0.55738
 Alpha  occ. eigenvalues --   -0.53507  -0.51584  -0.49722  -0.48951  -0.48050
 Alpha  occ. eigenvalues --   -0.45421  -0.44925  -0.44030  -0.41918  -0.41424
 Alpha  occ. eigenvalues --   -0.39844  -0.38039  -0.37137  -0.36637  -0.35780
 Alpha  occ. eigenvalues --   -0.35320  -0.35082  -0.33587  -0.32373  -0.29993
 Alpha  occ. eigenvalues --   -0.28111  -0.23266
 Alpha virt. eigenvalues --    0.00784   0.01066   0.01839   0.02203   0.03377
 Alpha virt. eigenvalues --    0.04029   0.04425   0.05121   0.05197   0.07017
 Alpha virt. eigenvalues --    0.07735   0.08118   0.08156   0.09122   0.09382

 Mulliken atomic charges:
              1
     1  C   -0.521424
     2  C    0.200389
     3  N   -0.142970
     4  C   -0.194284
     5  C   -0.263219
     6  C   -0.087433
     7  C   -0.031598
     8  C   -0.221585
     9  H    0.178538
    10  H    0.178959
    11  H    0.157448
    12  H    0.161656
    13  H    0.163126
    14  H    0.173469
    15  H    0.173814
    16  H    0.171006
    17  H    0.171049
    18  H    0.185503
    19  O   -0.533921
    20  H    0.374275
    21  O   -0.548024
    22  H    0.388857
    23  C   -0.297289
    24  H    0.163804
    25  H    0.168307
    26  O   -0.543386
    27  H    0.374933
 Sum of Mulliken atomic charges =   0.00000

 Dipole moment (field-independent basis, Debye):
    X=             -1.8554    Y=             -0.3190    Z=              0.3043  Tot=              1.9071
 Quadrupole moment (field-independent basis, Debye-Ang):
   XX=            -84.8149   YY=            -68.6190   ZZ=            -71.1150
   XY=             -3.6506   XZ=              8.3933   YZ=              8.7406

 Normal termination of Gaussian 09 at Fri May 17 12:33:35 2024.
