 Gaussian 09, Revision C.01,
 Gaussian 09:  AM64L-G09RevC.01 23-Sep-2011

 ------------------------------------------------
 # mpw1pw91/6-31+G** nmr scrf=(pcm,solvent=water)
 ------------------------------------------------

 99/9=1/99;
 -------
 comment
 -------
 Charge =  0 Multiplicity = 1

                         Standard orientation:
 ---------------------------------------------------------------------
 Center     Atomic      Atomic             Coordinates (Angstroms)
 Number     Number       Type             X           Y           Z
 ---------------------------------------------------------------------
      1          6           0        2.263551   -1.107833    0.222434
      2          6           0        1.275790   -0.154832   -0.469178
      3          7           0       -0.070960   -0.813233   -0.378813
      4          6           0        0.084105   -2.085029    0.355368
      5          6           0        1.551223   -2.467508    0.143057
      6          6           0       -1.038023    0.145554    0.191467
      7          6           0       -0.403911    1.513427   -0.080441
      8          6           0        1.087895    1.243038    0.138177
      9          1           0        3.250228   -1.106523   -0.250329
     10          1           0        2.392496   -0.817681    1.272634
     11          1           0        1.549775   -0.032574   -1.528156
     12          1           0       -0.605862   -2.849979   -0.018658
     13          1           0       -0.124155   -1.953271    1.430769
     14          1           0        1.686693   -2.914500   -0.849383
     15          1           0        1.906077   -3.186530    0.887896
     16          1           0       -1.118860    0.019995    1.285916
     17          1           0       -0.559494    1.797579   -1.134202
     18          1           0        1.277146    1.221152    1.217438
     19          8           0        1.953960    2.250870   -0.377807
     20          1           0        1.822897    2.273230   -1.342169
     21          8           0       -0.960466    2.502829    0.779684
     22          1           0       -0.522413    3.342280    0.559000
     23          6           0       -2.440240    0.018761   -0.396907
     24          1           0       -3.079636    0.797402    0.032435
     25          1           0       -2.401858    0.169807   -1.484931
     26          8           0       -3.073438   -1.227143   -0.083396
     27          1           0       -2.619109   -1.913660   -0.598294
 ---------------------------------------------------------------------

 SCF Done:  E(RmPW1PW91) =  -594.198697873     A.U. after   13 cycles

      1  C    Isotropic =   162.8401   Anisotropy =    24.8949

      2  C    Isotropic =   126.0135   Anisotropy =    54.9521

      3  N    Isotropic =   196.1616   Anisotropy =    89.5978

      4  C    Isotropic =   136.3665   Anisotropy =    57.0655

      5  C    Isotropic =   164.0914   Anisotropy =    23.8392

      6  C    Isotropic =   123.7805   Anisotropy =    37.5537

      7  C    Isotropic =   113.4067   Anisotropy =    37.3071

      8  C    Isotropic =   110.2740   Anisotropy =    17.5838

      9  H    Isotropic =    29.5020   Anisotropy =     9.7421

     10  H    Isotropic =    30.0217   Anisotropy =     8.2416

     11  H    Isotropic =    28.4058   Anisotropy =     6.9856

     12  H    Isotropic =    28.4016   Anisotropy =     8.3726

     13  H    Isotropic =    28.9227   Anisotropy =     7.5572

     14  H    Isotropic =    29.5135   Anisotropy =    10.5420

     15  H    Isotropic =    29.4590   Anisotropy =    11.5303

     16  H    Isotropic =    28.7479   Anisotropy =     4.6606

     17  H    Isotropic =    27.9530   Anisotropy =     1.6088

     18  H    Isotropic =    27.9928   Anisotropy =     2.4962

     19  O    Isotropic =   293.3858   Anisotropy =    96.8677

     20  H    Isotropic =    30.9599   Anisotropy =    16.2251

     21  O    Isotropic =   297.4293   Anisotropy =    42.0525

     22  H    Isotropic =    29.3463   Anisotropy =    18.7940

     23  C    Isotropic =   125.0401   Anisotropy =    49.0708

     24  H    Isotropic =    27.7504   Anisotropy =     5.3351

     25  H    Isotropic =    27.9907   Anisotropy =     5.5313

     26  O    Isotropic =   306.9656   Anisotropy =    22.4310

     27  H    Isotropic =    30.0663   Anisotropy =    14.7667

 The electronic state is 1-A.
 Alpha  occ. eigenvalues --  -19.26391 -19.26268 -19.25645 -14.41578 -10.30853
 Alpha  occ. eigenvalues --  -10.30443 -10.29461 -10.28237 -10.28114 -10.27148
 Alpha  occ. eigenvalues --  -10.24807 -10.24770  -1.07624  -1.05903  -1.05662
 Alpha  occ. eigenvalues --   -0.96852  -0.83381  -0.79399  -0.75570  -0.71749
 Alpha  occ. eigenvalues --   -0.66560  -0.62601  -0.60711  -0.58243  -0.56073
 Alpha  occ. eigenvalues --   -0.54575  -0.51704  -0.49963  -0.48960  -0.46840
 Alpha  occ. eigenvalues --   -0.45767  -0.45407  -0.43510  -0.43227  -0.40362
 Alpha  occ. eigenvalues --   -0.39677  -0.39018  -0.37424  -0.36661  -0.35969
 Alpha  occ. eigenvalues --   -0.35169  -0.34909  -0.33833  -0.32409  -0.30230
 Alpha  occ. eigenvalues --   -0.28087  -0.23227
 Alpha virt. eigenvalues --    0.00706   0.01177   0.02031   0.02213   0.03523
 Alpha virt. eigenvalues --    0.04173   0.04752   0.04776   0.05405   0.06495
 Alpha virt. eigenvalues --    0.07616   0.08140   0.08697   0.09234   0.09396

 Mulliken atomic charges:
              1
     1  C   -0.369476
     2  C   -0.031248
     3  N   -0.189221
     4  C   -0.201867
     5  C   -0.410927
     6  C    0.133809
     7  C   -0.051350
     8  C   -0.116201
     9  H    0.179392
    10  H    0.171422
    11  H    0.159195
    12  H    0.157622
    13  H    0.156610
    14  H    0.180531
    15  H    0.179013
    16  H    0.165771
    17  H    0.169188
    18  H    0.181903
    19  O   -0.528691
    20  H    0.373959
    21  O   -0.550408
    22  H    0.390312
    23  C   -0.319564
    24  H    0.169735
    25  H    0.162392
    26  O   -0.535816
    27  H    0.373914
 Sum of Mulliken atomic charges =   0.00000

 Dipole moment (field-independent basis, Debye):
    X=              2.8904    Y=             -0.6140    Z=             -2.5943  Tot=              3.9321
 Quadrupole moment (field-independent basis, Debye-Ang):
   XX=            -87.3962   YY=            -68.4410   ZZ=            -70.8591
   XY=             -5.6414   XZ=              2.4884   YZ=             -5.1555

 Normal termination of Gaussian 09 at Fri May 17 12:49:43 2024.
