 Gaussian 09, Revision C.01,
 Gaussian 09:  AM64L-G09RevC.01 23-Sep-2011

 ------------------------------------------------
 # mpw1pw91/6-31+G** nmr scrf=(pcm,solvent=water)
 ------------------------------------------------

 99/9=1/99;
 -------
 comment
 -------
 Charge =  0 Multiplicity = 1

                         Standard orientation:
 ---------------------------------------------------------------------
 Center     Atomic      Atomic             Coordinates (Angstroms)
 Number     Number       Type             X           Y           Z
 ---------------------------------------------------------------------
      1          6           0       -2.464625    0.589404   -0.086226
      2          6           0       -1.047542    0.575238    0.507752
      3          7           0       -0.492433   -0.790301    0.205975
      4          6           0       -1.530754   -1.575520   -0.495092
      5          6           0       -2.848300   -0.898593   -0.103904
      6          6           0        0.782560   -0.634391   -0.519228
      7          6           0        1.272065    0.750732   -0.088006
      8          6           0       -0.018511    1.567248   -0.063414
      9          1           0       -3.157123    1.209660    0.491063
     10          1           0       -2.436894    0.978411   -1.112065
     11          1           0       -1.091073    0.721778    1.595297
     12          1           0       -1.497056   -2.631602   -0.204898
     13          1           0       -1.388358   -1.527717   -1.587480
     14          1           0       -3.161801   -1.224996    0.895149
     15          1           0       -3.657289   -1.129503   -0.803782
     16          1           0        0.627806   -0.612680   -1.612855
     17          1           0        1.679897    0.703921    0.931739
     18          1           0       -0.279345    1.829802   -1.098739
     19          8           0        0.165188    2.752163    0.710539
     20          1           0       -0.630681    3.297536    0.597513
     21          8           0        2.262482    1.225839   -0.994835
     22          1           0        2.588789    2.068896   -0.638583
     23          6           0        1.750703   -1.776945   -0.214368
     24          1           0        1.356072   -2.711845   -0.640603
     25          1           0        2.719555   -1.578356   -0.684135
     26          8           0        1.985026   -1.924972    1.186238
     27          1           0        1.099373   -1.868480    1.589938
 ---------------------------------------------------------------------

 SCF Done:  E(RmPW1PW91) =  -594.202657857     A.U. after   13 cycles

      1  C    Isotropic =   162.4547   Anisotropy =    25.1449

      2  C    Isotropic =   125.7681   Anisotropy =    53.3110

      3  N    Isotropic =   204.9033   Anisotropy =    72.1602

      4  C    Isotropic =   139.6431   Anisotropy =    56.8099

      5  C    Isotropic =   164.5578   Anisotropy =    22.3004

      6  C    Isotropic =   123.5054   Anisotropy =    43.5977

      7  C    Isotropic =   117.9358   Anisotropy =    48.2594

      8  C    Isotropic =   110.7306   Anisotropy =    16.1600

      9  H    Isotropic =    29.4973   Anisotropy =     9.7282

     10  H    Isotropic =    30.0850   Anisotropy =     8.0925

     11  H    Isotropic =    28.2981   Anisotropy =     6.7831

     12  H    Isotropic =    28.3776   Anisotropy =     9.4610

     13  H    Isotropic =    29.1741   Anisotropy =     8.4531

     14  H    Isotropic =    29.5780   Anisotropy =    10.6784

     15  H    Isotropic =    29.4916   Anisotropy =    11.6970

     16  H    Isotropic =    28.9286   Anisotropy =     3.6530

     17  H    Isotropic =    27.1126   Anisotropy =     2.4781

     18  H    Isotropic =    27.7588   Anisotropy =     2.9974

     19  O    Isotropic =   295.3646   Anisotropy =    27.7525

     20  H    Isotropic =    29.7642   Anisotropy =    18.9011

     21  O    Isotropic =   298.9823   Anisotropy =    43.9263

     22  H    Isotropic =    29.3635   Anisotropy =    19.1520

     23  C    Isotropic =   135.6285   Anisotropy =    56.6164

     24  H    Isotropic =    27.8877   Anisotropy =     7.5655

     25  H    Isotropic =    27.9171   Anisotropy =     6.5560

     26  O    Isotropic =   329.5729   Anisotropy =    47.1523

     27  H    Isotropic =    29.1876   Anisotropy =    15.9769

 The electronic state is 1-A.
 Alpha  occ. eigenvalues --  -19.26159 -19.26073 -19.25002 -14.41806 -10.30441
 Alpha  occ. eigenvalues --  -10.30316 -10.29286 -10.28296 -10.27862 -10.27085
 Alpha  occ. eigenvalues --  -10.24803 -10.24764  -1.07389  -1.05705  -1.05290
 Alpha  occ. eigenvalues --   -0.96826  -0.83183  -0.79486  -0.75237  -0.71767
 Alpha  occ. eigenvalues --   -0.66594  -0.61374  -0.60609  -0.58396  -0.56068
 Alpha  occ. eigenvalues --   -0.53868  -0.50928  -0.50158  -0.48885  -0.48230
 Alpha  occ. eigenvalues --   -0.45456  -0.45135  -0.43525  -0.41712  -0.41308
 Alpha  occ. eigenvalues --   -0.40207  -0.38601  -0.37979  -0.36162  -0.35528
 Alpha  occ. eigenvalues --   -0.35049  -0.34586  -0.33444  -0.31029  -0.29433
 Alpha  occ. eigenvalues --   -0.29084  -0.23616
 Alpha virt. eigenvalues --    0.00765   0.01349   0.01848   0.01991   0.03636
 Alpha virt. eigenvalues --    0.04146   0.04589   0.04998   0.05360   0.06826
 Alpha virt. eigenvalues --    0.07887   0.08412   0.08687   0.09193   0.09424

 Mulliken atomic charges:
              1
     1  C   -0.384144
     2  C   -0.024117
     3  N   -0.230540
     4  C   -0.255941
     5  C   -0.363552
     6  C    0.157446
     7  C   -0.084402
     8  C   -0.075869
     9  H    0.179593
    10  H    0.171524
    11  H    0.173570
    12  H    0.169093
    13  H    0.154743
    14  H    0.180237
    15  H    0.178319
    16  H    0.161223
    17  H    0.181984
    18  H    0.171584
    19  O   -0.552064
    20  H    0.389019
    21  O   -0.552132
    22  H    0.389703
    23  C   -0.280457
    24  H    0.152838
    25  H    0.166642
    26  O   -0.559334
    27  H    0.385033
 Sum of Mulliken atomic charges =   0.00000

 Dipole moment (field-independent basis, Debye):
    X=             -5.3771    Y=              1.6728    Z=             -1.6665  Tot=              5.8727
 Quadrupole moment (field-independent basis, Debye-Ang):
   XX=            -75.4406   YY=            -69.9526   ZZ=            -76.9381
   XY=              2.0196   XZ=             -2.0549   YZ=              2.8564

 Normal termination of Gaussian 09 at Fri May 17 12:43:47 2024.
