 Gaussian 09, Revision C.01,
 Gaussian 09:  AM64L-G09RevC.01 23-Sep-2011

 ------------------------------------------------
 # mpw1pw91/6-31+G** nmr scrf=(pcm,solvent=water)
 ------------------------------------------------

 99/9=1/99;
 -------
 comment
 -------
 Charge =  0 Multiplicity = 1

                         Standard orientation:
 ---------------------------------------------------------------------
 Center     Atomic      Atomic             Coordinates (Angstroms)
 Number     Number       Type             X           Y           Z
 ---------------------------------------------------------------------
      1          6           0        2.075821   -1.502856   -0.098069
      2          6           0        1.214037   -0.367896   -0.682873
      3          7           0       -0.216860   -0.820448   -0.576234
      4          6           0       -0.213204   -2.132097    0.116957
      5          6           0        1.120126   -2.214599    0.870115
      6          6           0       -0.990328    0.234886    0.119342
      7          6           0       -0.142130    1.504931   -0.053957
      8          6           0        1.281838    0.962632    0.070092
      9          1           0        2.385535   -2.189215   -0.894874
     10          1           0        2.982367   -1.117952    0.380722
     11          1           0        1.475988   -0.174859   -1.731046
     12          1           0       -0.271700   -2.942102   -0.622760
     13          1           0       -1.089494   -2.220520    0.763289
     14          1           0        1.420302   -3.242834    1.096734
     15          1           0        1.055734   -1.664379    1.817341
     16          1           0       -1.063084    0.028287    1.201875
     17          1           0       -0.276876    1.923489   -1.058409
     18          1           0        1.485498    0.784694    1.138703
     19          8           0        2.292449    1.800089   -0.485440
     20          1           0        2.286682    2.626920    0.026300
     21          8           0       -0.460516    2.564325    0.843103
     22          1           0       -0.345294    2.221001    1.746994
     23          6           0       -2.403332    0.408623   -0.412267
     24          1           0       -2.831182    1.327411    0.015419
     25          1           0       -2.371776    0.523204   -1.505001
     26          8           0       -3.194688   -0.727927   -0.044720
     27          1           0       -4.079611   -0.593662   -0.421228
 ---------------------------------------------------------------------

 SCF Done:  E(RmPW1PW91) =  -594.197831113     A.U. after   13 cycles

      1  C    Isotropic =   164.0842   Anisotropy =    23.1936

      2  C    Isotropic =   128.6404   Anisotropy =    54.8270

      3  N    Isotropic =   195.7074   Anisotropy =    76.3539

      4  C    Isotropic =   139.0953   Anisotropy =    57.6583

      5  C    Isotropic =   171.2700   Anisotropy =    18.7065

      6  C    Isotropic =   124.6678   Anisotropy =    39.3852

      7  C    Isotropic =   115.6872   Anisotropy =    38.7450

      8  C    Isotropic =   113.1506   Anisotropy =    27.0751

      9  H    Isotropic =    29.8167   Anisotropy =    11.8320

     10  H    Isotropic =    29.7437   Anisotropy =     9.5294

     11  H    Isotropic =    28.2191   Anisotropy =     7.0308

     12  H    Isotropic =    28.6810   Anisotropy =    11.3566

     13  H    Isotropic =    28.6487   Anisotropy =     7.3573

     14  H    Isotropic =    30.0791   Anisotropy =    12.5618

     15  H    Isotropic =    29.9035   Anisotropy =     8.9175

     16  H    Isotropic =    29.0596   Anisotropy =     5.5097

     17  H    Isotropic =    28.1795   Anisotropy =     1.7966

     18  H    Isotropic =    28.1770   Anisotropy =     3.7502

     19  O    Isotropic =   298.5447   Anisotropy =    43.1399

     20  H    Isotropic =    29.3248   Anisotropy =    18.7816

     21  O    Isotropic =   293.6671   Anisotropy =    97.9390

     22  H    Isotropic =    30.9640   Anisotropy =    15.4254

     23  C    Isotropic =   125.8547   Anisotropy =    48.6195

     24  H    Isotropic =    27.5660   Anisotropy =     4.9182

     25  H    Isotropic =    27.9723   Anisotropy =     5.0925

     26  O    Isotropic =   313.1417   Anisotropy =    88.7179

     27  H    Isotropic =    30.2640   Anisotropy =    21.6732

 The electronic state is 1-A.
 Alpha  occ. eigenvalues --  -19.26543 -19.26120 -19.25444 -14.41301 -10.30701
 Alpha  occ. eigenvalues --  -10.30460 -10.29409 -10.28329 -10.27848 -10.26603
 Alpha  occ. eigenvalues --  -10.24639 -10.24405  -1.07637  -1.05835  -1.05510
 Alpha  occ. eigenvalues --   -0.96533  -0.82882  -0.79481  -0.75536  -0.71588
 Alpha  occ. eigenvalues --   -0.66074  -0.63171  -0.60135  -0.57581  -0.55643
 Alpha  occ. eigenvalues --   -0.53947  -0.52754  -0.50394  -0.48186  -0.46969
 Alpha  occ. eigenvalues --   -0.45667  -0.45369  -0.44235  -0.41839  -0.40353
 Alpha  occ. eigenvalues --   -0.39795  -0.38688  -0.37343  -0.36702  -0.35618
 Alpha  occ. eigenvalues --   -0.35028  -0.34735  -0.33105  -0.32293  -0.29654
 Alpha  occ. eigenvalues --   -0.28389  -0.23246
 Alpha virt. eigenvalues --    0.00729   0.01192   0.01875   0.01972   0.03268
 Alpha virt. eigenvalues --    0.04073   0.04429   0.04787   0.05631   0.07330
 Alpha virt. eigenvalues --    0.07666   0.08060   0.08363   0.08950   0.09334

 Mulliken atomic charges:
              1
     1  C   -0.533888
     2  C    0.153587
     3  N   -0.141578
     4  C   -0.267285
     5  C   -0.235227
     6  C   -0.085159
     7  C   -0.100442
     8  C   -0.079012
     9  H    0.177968
    10  H    0.178750
    11  H    0.168272
    12  H    0.159836
    13  H    0.172451
    14  H    0.172597
    15  H    0.172733
    16  H    0.164556
    17  H    0.186163
    18  H    0.167152
    19  O   -0.546024
    20  H    0.385360
    21  O   -0.525567
    22  H    0.374985
    23  C   -0.249424
    24  H    0.161495
    25  H    0.163367
    26  O   -0.588944
    27  H    0.393274
 Sum of Mulliken atomic charges =   0.00000

 Dipole moment (field-independent basis, Debye):
    X=             -0.4926    Y=              0.0354    Z=              2.4575  Tot=              2.5066
 Quadrupole moment (field-independent basis, Debye-Ang):
   XX=            -69.8516   YY=            -76.1443   ZZ=            -70.6825
   XY=             -3.5050   XZ=              7.1141   YZ=              2.2848

 Normal termination of Gaussian 09 at Fri May 17 12:50:50 2024.
