 Gaussian 09, Revision C.01,
 Gaussian 09:  AM64L-G09RevC.01 23-Sep-2011

 ------------------------------------------------
 # mpw1pw91/6-31+G** nmr scrf=(pcm,solvent=water)
 ------------------------------------------------

 99/9=1/99;
 -------
 comment
 -------
 Charge =  0 Multiplicity = 1

                         Standard orientation:
 ---------------------------------------------------------------------
 Center     Atomic      Atomic             Coordinates (Angstroms)
 Number     Number       Type             X           Y           Z
 ---------------------------------------------------------------------
      1          6           0        2.214204   -1.184666    0.273156
      2          6           0        1.291384   -0.191773   -0.450389
      3          7           0       -0.080837   -0.802438   -0.420359
      4          6           0        0.004400   -2.098765    0.280816
      5          6           0        1.468117   -2.520296    0.124897
      6          6           0       -1.024204    0.172703    0.155662
      7          6           0       -0.350552    1.524722   -0.097831
      8          6           0        1.128270    1.210783    0.154170
      9          1           0        3.225190   -1.202052   -0.145134
     10          1           0        2.292975   -0.919380    1.334985
     11          1           0        1.616475   -0.075551   -1.495520
     12          1           0       -0.695016   -2.825494   -0.145729
     13          1           0       -0.248436   -1.990196    1.349411
     14          1           0        1.636674   -2.944593   -0.872570
     15          1           0        1.767914   -3.268546    0.865165
     16          1           0       -1.106503    0.042384    1.251712
     17          1           0       -0.475369    1.815502   -1.153707
     18          1           0        1.291267    1.183960    1.237638
     19          8           0        2.033985    2.194803   -0.339495
     20          1           0        1.925255    2.223807   -1.306425
     21          8           0       -0.896501    2.526604    0.754294
     22          1           0       -0.421076    3.351152    0.555563
     23          6           0       -2.432068    0.083184   -0.423600
     24          1           0       -3.034611    0.915672   -0.032070
     25          1           0       -2.395324    0.172559   -1.513985
     26          8           0       -3.071778   -1.169706   -0.152575
     27          1           0       -3.136505   -1.251126    0.814101
 ---------------------------------------------------------------------

 SCF Done:  E(RmPW1PW91) =  -594.197890408     A.U. after   13 cycles

      1  C    Isotropic =   162.4444   Anisotropy =    24.5606

      2  C    Isotropic =   125.9046   Anisotropy =    53.8495

      3  N    Isotropic =   193.6284   Anisotropy =    89.4179

      4  C    Isotropic =   136.4677   Anisotropy =    57.4142

      5  C    Isotropic =   164.2716   Anisotropy =    22.9713

      6  C    Isotropic =   122.8011   Anisotropy =    37.5137

      7  C    Isotropic =   113.3828   Anisotropy =    36.8445

      8  C    Isotropic =   110.2166   Anisotropy =    18.2558

      9  H    Isotropic =    29.5104   Anisotropy =     9.6919

     10  H    Isotropic =    30.0381   Anisotropy =     8.1305

     11  H    Isotropic =    28.4233   Anisotropy =     7.0266

     12  H    Isotropic =    28.1700   Anisotropy =     8.2804

     13  H    Isotropic =    29.0687   Anisotropy =     7.4498

     14  H    Isotropic =    29.5639   Anisotropy =    10.5302

     15  H    Isotropic =    29.4998   Anisotropy =    11.4773

     16  H    Isotropic =    28.9563   Anisotropy =     4.3987

     17  H    Isotropic =    27.8965   Anisotropy =     1.5689

     18  H    Isotropic =    27.9936   Anisotropy =     2.4936

     19  O    Isotropic =   292.6696   Anisotropy =    96.0772

     20  H    Isotropic =    30.9220   Anisotropy =    16.2183

     21  O    Isotropic =   297.2599   Anisotropy =    41.6961

     22  H    Isotropic =    29.3438   Anisotropy =    18.7023

     23  C    Isotropic =   125.5704   Anisotropy =    48.8069

     24  H    Isotropic =    27.5084   Anisotropy =     5.4945

     25  H    Isotropic =    28.1939   Anisotropy =     5.0844

     26  O    Isotropic =   306.2693   Anisotropy =    75.6525

     27  H    Isotropic =    30.9628   Anisotropy =    15.9226

 The electronic state is 1-A.
 Alpha  occ. eigenvalues --  -19.26368 -19.26264 -19.25516 -14.41324 -10.30866
 Alpha  occ. eigenvalues --  -10.30429 -10.29405 -10.28336 -10.27979 -10.26734
 Alpha  occ. eigenvalues --  -10.24697 -10.24608  -1.07613  -1.05878  -1.05554
 Alpha  occ. eigenvalues --   -0.96707  -0.83271  -0.79277  -0.75408  -0.71575
 Alpha  occ. eigenvalues --   -0.66555  -0.62607  -0.60546  -0.58588  -0.55864
 Alpha  occ. eigenvalues --   -0.53856  -0.51838  -0.49616  -0.48529  -0.47361
 Alpha  occ. eigenvalues --   -0.45987  -0.44509  -0.44204  -0.42985  -0.40599
 Alpha  occ. eigenvalues --   -0.39578  -0.38000  -0.37277  -0.36979  -0.35801
 Alpha  occ. eigenvalues --   -0.35233  -0.34680  -0.33904  -0.32266  -0.30047
 Alpha  occ. eigenvalues --   -0.27978  -0.23019
 Alpha virt. eigenvalues --    0.00785   0.01277   0.01828   0.02330   0.03492
 Alpha virt. eigenvalues --    0.04221   0.04779   0.04877   0.05207   0.06779
 Alpha virt. eigenvalues --    0.07444   0.08203   0.08722   0.09244   0.09352

 Mulliken atomic charges:
              1
     1  C   -0.387989
     2  C    0.046856
     3  N   -0.110125
     4  C   -0.205561
     5  C   -0.384626
     6  C   -0.041123
     7  C   -0.081546
     8  C   -0.132343
     9  H    0.178146
    10  H    0.170236
    11  H    0.156814
    12  H    0.171156
    13  H    0.150754
    14  H    0.179088
    15  H    0.177282
    16  H    0.159549
    17  H    0.171090
    18  H    0.181298
    19  O   -0.530830
    20  H    0.374075
    21  O   -0.549192
    22  H    0.389922
    23  C   -0.250281
    24  H    0.162610
    25  H    0.166655
    26  O   -0.539286
    27  H    0.377367
 Sum of Mulliken atomic charges =   0.00000

 Dipole moment (field-independent basis, Debye):
    X=              1.8179    Y=              0.3977    Z=              0.2077  Tot=              1.8725
 Quadrupole moment (field-independent basis, Debye-Ang):
   XX=            -82.2987   YY=            -72.3189   ZZ=            -69.8667
   XY=             -6.2240   XZ=             -6.2394   YZ=             -9.9096

 Normal termination of Gaussian 09 at Fri May 17 12:27:00 2024.
