 Gaussian 09, Revision C.01,
 Gaussian 09:  AM64L-G09RevC.01 23-Sep-2011

 ------------------------------------------------
 # mpw1pw91/6-31+G** nmr scrf=(pcm,solvent=water)
 ------------------------------------------------

 99/9=1/99;
 -------
 comment
 -------
 Charge =  0 Multiplicity = 1

                         Standard orientation:
 ---------------------------------------------------------------------
 Center     Atomic      Atomic             Coordinates (Angstroms)
 Number     Number       Type             X           Y           Z
 ---------------------------------------------------------------------
      1          6           0        2.649992   -0.017806    0.107219
      2          6           0        1.340844    0.380577   -0.605952
      3          7           0        0.493499   -0.867336   -0.683057
      4          6           0        1.279632   -1.959122   -0.062816
      5          6           0        2.266801   -1.280027    0.893953
      6          6           0       -0.777232   -0.589283    0.020065
      7          6           0       -0.939554    0.922531   -0.129535
      8          6           0        0.481651    1.425518    0.117444
      9          1           0        3.422753   -0.258902   -0.631989
     10          1           0        3.032524    0.793296    0.735416
     11          1           0        1.546747    0.759060   -1.614375
     12          1           0        1.828137   -2.503530   -0.842684
     13          1           0        0.611791   -2.674597    0.425855
     14          1           0        3.125826   -1.911382    1.143067
     15          1           0        1.761839   -1.012193    1.830551
     16          1           0       -0.708991   -0.813541    1.098674
     17          1           0       -1.232451    1.171081   -1.159356
     18          1           0        0.670857    1.400127    1.200903
     19          8           0        0.755950    2.728241   -0.395971
     20          1           0        0.232976    3.357171    0.129591
     21          8           0       -1.927881    1.408668    0.785804
     22          1           0       -2.153597    2.314878    0.515346
     23          6           0       -1.961838   -1.375084   -0.539782
     24          1           0       -2.106903   -1.118871   -1.600580
     25          1           0       -1.773687   -2.452707   -0.479436
     26          8           0       -3.152235   -1.119877    0.214904
     27          1           0       -3.160766   -0.158615    0.388948
 ---------------------------------------------------------------------

 SCF Done:  E(RmPW1PW91) =  -594.199519000     A.U. after   13 cycles

      1  C    Isotropic =   163.0521   Anisotropy =    24.7342

      2  C    Isotropic =   128.0064   Anisotropy =    56.9495

      3  N    Isotropic =   201.5738   Anisotropy =    66.8763

      4  C    Isotropic =   141.6290   Anisotropy =    52.7651

      5  C    Isotropic =   171.3398   Anisotropy =    19.7309

      6  C    Isotropic =   129.9967   Anisotropy =    50.2851

      7  C    Isotropic =   111.5303   Anisotropy =    26.1912

      8  C    Isotropic =   112.6729   Anisotropy =    25.9736

      9  H    Isotropic =    29.7779   Anisotropy =    11.7737

     10  H    Isotropic =    29.7267   Anisotropy =     9.4336

     11  H    Isotropic =    28.2915   Anisotropy =     6.9639

     12  H    Isotropic =    28.9522   Anisotropy =    12.0070

     13  H    Isotropic =    28.8220   Anisotropy =     8.4778

     14  H    Isotropic =    30.0518   Anisotropy =    12.6414

     15  H    Isotropic =    29.7896   Anisotropy =     8.7878

     16  H    Isotropic =    28.8690   Anisotropy =     4.9744

     17  H    Isotropic =    27.6581   Anisotropy =     2.1516

     18  H    Isotropic =    27.9124   Anisotropy =     3.6969

     19  O    Isotropic =   298.9667   Anisotropy =    41.3856

     20  H    Isotropic =    29.5125   Anisotropy =    18.9527

     21  O    Isotropic =   299.0769   Anisotropy =    34.7462

     22  H    Isotropic =    29.1700   Anisotropy =    19.6919

     23  C    Isotropic =   125.5641   Anisotropy =    58.7204

     24  H    Isotropic =    27.8379   Anisotropy =     4.1299

     25  H    Isotropic =    27.8212   Anisotropy =     4.4821

     26  O    Isotropic =   314.3326   Anisotropy =    40.3588

     27  H    Isotropic =    28.3162   Anisotropy =    19.7344

 The electronic state is 1-A.
 Alpha  occ. eigenvalues --  -19.27494 -19.26387 -19.24846 -14.41822 -10.30961
 Alpha  occ. eigenvalues --  -10.30578 -10.29385 -10.28443 -10.28092 -10.27028
 Alpha  occ. eigenvalues --  -10.24757 -10.24577  -1.08284  -1.06331  -1.04891
 Alpha  occ. eigenvalues --   -0.97044  -0.83078  -0.79828  -0.75286  -0.71621
 Alpha  occ. eigenvalues --   -0.66978  -0.62100  -0.60538  -0.58439  -0.56660
 Alpha  occ. eigenvalues --   -0.54119  -0.51897  -0.49847  -0.49704  -0.48105
 Alpha  occ. eigenvalues --   -0.45910  -0.44257  -0.43681  -0.41817  -0.40725
 Alpha  occ. eigenvalues --   -0.40323  -0.39559  -0.38818  -0.35889  -0.35682
 Alpha  occ. eigenvalues --   -0.34987  -0.34382  -0.34041  -0.32746  -0.29464
 Alpha  occ. eigenvalues --   -0.28499  -0.23831
 Alpha virt. eigenvalues --    0.00114   0.01476   0.01761   0.02343   0.03671
 Alpha virt. eigenvalues --    0.04050   0.04461   0.05051   0.05389   0.06806
 Alpha virt. eigenvalues --    0.07834   0.08224   0.08502   0.09214   0.09465

 Mulliken atomic charges:
              1
     1  C   -0.544560
     2  C    0.146330
     3  N   -0.141546
     4  C   -0.227003
     5  C   -0.231574
     6  C   -0.358465
     7  C    0.007946
     8  C   -0.062576
     9  H    0.179451
    10  H    0.179704
    11  H    0.171388
    12  H    0.167024
    13  H    0.167256
    14  H    0.174761
    15  H    0.175203
    16  H    0.184717
    17  H    0.190930
    18  H    0.179432
    19  O   -0.548954
    20  H    0.382012
    21  O   -0.582592
    22  H    0.397588
    23  C   -0.163343
    24  H    0.157207
    25  H    0.160653
    26  O   -0.554090
    27  H    0.393100
 Sum of Mulliken atomic charges =   0.00000

 Dipole moment (field-independent basis, Debye):
    X=              2.1304    Y=              2.6421    Z=              1.0143  Tot=              3.5423
 Quadrupole moment (field-independent basis, Debye-Ang):
   XX=            -81.7661   YY=            -65.9674   ZZ=            -76.9243
   XY=            -15.1915   XZ=              5.2834   YZ=              2.9773

 Normal termination of Gaussian 09 at Fri May 17 12:18:13 2024.
