 Gaussian 09, Revision C.01,
 Gaussian 09:  AM64L-G09RevC.01 23-Sep-2011

 ------------------------------------------------
 # mpw1pw91/6-31+G** nmr scrf=(pcm,solvent=water)
 ------------------------------------------------

 99/9=1/99;
 -------
 comment
 -------
 Charge =  0 Multiplicity = 1

                         Standard orientation:
 ---------------------------------------------------------------------
 Center     Atomic      Atomic             Coordinates (Angstroms)
 Number     Number       Type             X           Y           Z
 ---------------------------------------------------------------------
      1          6           0        2.392510   -0.542900   -0.631129
      2          6           0        1.111541    0.289863   -0.838804
      3          7           0       -0.039735   -0.638401   -0.584576
      4          6           0        0.511471   -1.940720   -0.145138
      5          6           0        1.950319   -1.670101    0.315110
      6          6           0       -0.970008    0.015575    0.363691
      7          6           0       -0.629733    1.514627    0.268441
      8          6           0        0.896762    1.493917    0.103668
      9          1           0        2.716604   -0.961422   -1.590630
     10          1           0        3.226293    0.051578   -0.240849
     11          1           0        1.066326    0.668249   -1.868684
     12          1           0        0.514200   -2.647048   -0.986959
     13          1           0       -0.117776   -2.374609    0.635965
     14          1           0        2.589228   -2.557292    0.253331
     15          1           0        1.955658   -1.316721    1.351548
     16          1           0       -0.761065   -0.299688    1.398772
     17          1           0       -0.927343    2.056277    1.169126
     18          1           0        1.265694    2.429125   -0.335065
     19          8           0        1.442544    1.312855    1.415715
     20          1           0        2.407370    1.243711    1.326204
     21          8           0       -1.272840    2.192322   -0.815879
     22          1           0       -1.087710    1.703400   -1.635658
     23          6           0       -2.438057   -0.279456    0.087700
     24          1           0       -3.060034    0.351864    0.740407
     25          1           0       -2.686301   -0.035012   -0.952491
     26          8           0       -2.689606   -1.666328    0.348308
     27          1           0       -3.612618   -1.839221    0.100626
 ---------------------------------------------------------------------

 SCF Done:  E(RmPW1PW91) =  -594.193445768     A.U. after   13 cycles

      1  C    Isotropic =   168.0272   Anisotropy =    24.9520

      2  C    Isotropic =   126.5868   Anisotropy =    60.8245

      3  N    Isotropic =   192.7888   Anisotropy =    84.3316

      4  C    Isotropic =   139.7474   Anisotropy =    58.3449

      5  C    Isotropic =   168.4444   Anisotropy =    23.6151

      6  C    Isotropic =   126.1057   Anisotropy =    38.2374

      7  C    Isotropic =   113.1139   Anisotropy =    29.4740

      8  C    Isotropic =   115.1841   Anisotropy =    28.0379

      9  H    Isotropic =    29.6891   Anisotropy =    12.3586

     10  H    Isotropic =    29.9316   Anisotropy =     9.7003

     11  H    Isotropic =    27.8183   Anisotropy =     8.2576

     12  H    Isotropic =    28.5256   Anisotropy =    11.4105

     13  H    Isotropic =    28.5653   Anisotropy =     7.5517

     14  H    Isotropic =    30.1087   Anisotropy =    12.7888

     15  H    Isotropic =    29.8725   Anisotropy =     7.8833

     16  H    Isotropic =    28.4446   Anisotropy =     5.5998

     17  H    Isotropic =    27.5143   Anisotropy =     5.3963

     18  H    Isotropic =    27.6825   Anisotropy =     6.9372

     19  O    Isotropic =   298.8780   Anisotropy =    50.5208

     20  H    Isotropic =    29.9860   Anisotropy =    17.8312

     21  O    Isotropic =   298.0218   Anisotropy =    26.2720

     22  H    Isotropic =    30.4017   Anisotropy =    13.0784

     23  C    Isotropic =   127.7987   Anisotropy =    46.3671

     24  H    Isotropic =    27.5552   Anisotropy =     6.1791

     25  H    Isotropic =    27.8566   Anisotropy =     5.8353

     26  O    Isotropic =   313.4160   Anisotropy =    82.6296

     27  H    Isotropic =    30.1778   Anisotropy =    21.6123

 The electronic state is 1-A.
 Alpha  occ. eigenvalues --  -19.26197 -19.25947 -19.25355 -14.40979 -10.30801
 Alpha  occ. eigenvalues --  -10.30377 -10.29358 -10.27966 -10.27919 -10.26493
 Alpha  occ. eigenvalues --  -10.25067 -10.24209  -1.07310  -1.05843  -1.05404
 Alpha  occ. eigenvalues --   -0.95896  -0.82666  -0.79001  -0.75551  -0.72247
 Alpha  occ. eigenvalues --   -0.66231  -0.62292  -0.59814  -0.57795  -0.55263
 Alpha  occ. eigenvalues --   -0.53845  -0.51691  -0.50188  -0.49231  -0.47214
 Alpha  occ. eigenvalues --   -0.45976  -0.44630  -0.44128  -0.41883  -0.40485
 Alpha  occ. eigenvalues --   -0.39311  -0.37989  -0.37772  -0.36525  -0.35665
 Alpha  occ. eigenvalues --   -0.35086  -0.34472  -0.33464  -0.30341  -0.30010
 Alpha  occ. eigenvalues --   -0.29085  -0.22891
 Alpha virt. eigenvalues --    0.00513   0.01226   0.01827   0.02391   0.02923
 Alpha virt. eigenvalues --    0.04271   0.04651   0.05325   0.05384   0.07093
 Alpha virt. eigenvalues --    0.07350   0.08218   0.08360   0.08696   0.09520

 Mulliken atomic charges:
              1
     1  C   -0.495036
     2  C    0.065205
     3  N   -0.150428
     4  C   -0.262845
     5  C   -0.299018
     6  C   -0.047243
     7  C   -0.269555
     8  C    0.051598
     9  H    0.183971
    10  H    0.161465
    11  H    0.165129
    12  H    0.157253
    13  H    0.169741
    14  H    0.169815
    15  H    0.178706
    16  H    0.176606
    17  H    0.184078
    18  H    0.173170
    19  O   -0.552350
    20  H    0.378021
    21  O   -0.506102
    22  H    0.381595
    23  C   -0.131543
    24  H    0.158265
    25  H    0.159396
    26  O   -0.593923
    27  H    0.394030
 Sum of Mulliken atomic charges =   0.00000

 Dipole moment (field-independent basis, Debye):
    X=              1.9746    Y=             -0.3486    Z=             -1.3932  Tot=              2.4416
 Quadrupole moment (field-independent basis, Debye-Ang):
   XX=            -57.7426   YY=            -80.7224   ZZ=            -74.4315
   XY=              3.6207   XZ=             -0.2292   YZ=             -0.3679

 Normal termination of Gaussian 09 at Fri May 17 12:50:42 2024.
