 Gaussian 09, Revision C.01,
 Gaussian 09:  AM64L-G09RevC.01 23-Sep-2011

 ------------------------------------------------
 # mpw1pw91/6-31+G** nmr scrf=(pcm,solvent=water)
 ------------------------------------------------

 99/9=1/99;
 -------
 comment
 -------
 Charge =  0 Multiplicity = 1

                         Standard orientation:
 ---------------------------------------------------------------------
 Center     Atomic      Atomic             Coordinates (Angstroms)
 Number     Number       Type             X           Y           Z
 ---------------------------------------------------------------------
      1          6           0        2.611601    0.160858   -0.211526
      2          6           0        1.173431    0.482952   -0.655800
      3          7           0        0.367912   -0.764757   -0.411784
      4          6           0        1.226433   -1.726071    0.302572
      5          6           0        2.640934   -1.378227   -0.165985
      6          6           0       -0.880149   -0.392224    0.279741
      7          6           0       -1.044747    1.116306   -0.001540
      8          6           0        0.416033    1.613479    0.058609
      9          1           0        3.356180    0.583477   -0.892657
     10          1           0        2.799323    0.567081    0.786212
     11          1           0        1.156384    0.711206   -1.729883
     12          1           0        0.944099   -2.759454    0.070673
     13          1           0        1.145884   -1.600728    1.396743
     14          1           0        2.820891   -1.790947   -1.165991
     15          1           0        3.410912   -1.773299    0.504124
     16          1           0       -0.767490   -0.507030    1.370792
     17          1           0       -1.665487    1.607339    0.752432
     18          1           0        0.530499    2.579619   -0.448802
     19          8           0        0.851251    1.703007    1.418738
     20          1           0        0.291388    2.368759    1.852952
     21          8           0       -1.662879    1.417604   -1.255474
     22          1           0       -1.202901    0.921870   -1.953569
     23          6           0       -2.051754   -1.261863   -0.154316
     24          1           0       -2.260264   -1.108101   -1.221623
     25          1           0       -1.789643   -2.320064   -0.012921
     26          8           0       -3.185641   -0.911760    0.647726
     27          1           0       -3.917694   -1.488492    0.375568
 ---------------------------------------------------------------------

 SCF Done:  E(RmPW1PW91) =  -594.195343679     A.U. after   13 cycles

      1  C    Isotropic =   172.0375   Anisotropy =    21.1099

      2  C    Isotropic =   128.2402   Anisotropy =    59.7900

      3  N    Isotropic =   194.2310   Anisotropy =    87.9468

      4  C    Isotropic =   138.6533   Anisotropy =    56.6952

      5  C    Isotropic =   163.6867   Anisotropy =    25.7917

      6  C    Isotropic =   126.3892   Anisotropy =    54.3312

      7  C    Isotropic =   110.8296   Anisotropy =    33.9820

      8  C    Isotropic =   118.4574   Anisotropy =    32.9092

      9  H    Isotropic =    29.9569   Anisotropy =    11.7160

     10  H    Isotropic =    29.3663   Anisotropy =     7.3946

     11  H    Isotropic =    27.7619   Anisotropy =     7.8803

     12  H    Isotropic =    28.4443   Anisotropy =     9.5434

     13  H    Isotropic =    29.1748   Anisotropy =     8.0308

     14  H    Isotropic =    29.4257   Anisotropy =    10.6924

     15  H    Isotropic =    29.4999   Anisotropy =    11.6210

     16  H    Isotropic =    28.5335   Anisotropy =     4.3542

     17  H    Isotropic =    27.3425   Anisotropy =     4.5218

     18  H    Isotropic =    27.6449   Anisotropy =     6.7454

     19  O    Isotropic =   288.8273   Anisotropy =    83.0176

     20  H    Isotropic =    30.2469   Anisotropy =    19.7023

     21  O    Isotropic =   301.0239   Anisotropy =    33.7918

     22  H    Isotropic =    30.3136   Anisotropy =    14.2630

     23  C    Isotropic =   133.7974   Anisotropy =    72.0784

     24  H    Isotropic =    27.7811   Anisotropy =     2.7656

     25  H    Isotropic =    27.7410   Anisotropy =     5.2420

     26  O    Isotropic =   316.3385   Anisotropy =    92.6217

     27  H    Isotropic =    30.3758   Anisotropy =    21.6353

 The electronic state is 1-A.
 Alpha  occ. eigenvalues --  -19.26124 -19.25952 -19.25518 -14.41245 -10.30592
 Alpha  occ. eigenvalues --  -10.30370 -10.29418 -10.27968 -10.27891 -10.26818
 Alpha  occ. eigenvalues --  -10.24569 -10.24426  -1.07294  -1.05890  -1.05441
 Alpha  occ. eigenvalues --   -0.96286  -0.82705  -0.79218  -0.75099  -0.71936
 Alpha  occ. eigenvalues --   -0.66629  -0.61644  -0.60651  -0.57477  -0.54834
 Alpha  occ. eigenvalues --   -0.53519  -0.52473  -0.50584  -0.49794  -0.47846
 Alpha  occ. eigenvalues --   -0.45487  -0.43495  -0.42898  -0.41752  -0.41257
 Alpha  occ. eigenvalues --   -0.39066  -0.38488  -0.38035  -0.37020  -0.35542
 Alpha  occ. eigenvalues --   -0.34955  -0.34061  -0.32599  -0.32194  -0.29703
 Alpha  occ. eigenvalues --   -0.28274  -0.23289
 Alpha virt. eigenvalues --    0.00725   0.01092   0.01658   0.02385   0.03627
 Alpha virt. eigenvalues --    0.04225   0.04537   0.05064   0.05470   0.06494
 Alpha virt. eigenvalues --    0.07716   0.08157   0.08844   0.09133   0.09483

 Mulliken atomic charges:
              1
     1  C   -0.527169
     2  C    0.063544
     3  N   -0.171795
     4  C   -0.223535
     5  C   -0.358731
     6  C   -0.233451
     7  C   -0.255786
     8  C    0.113613
     9  H    0.173215
    10  H    0.190386
    11  H    0.169636
    12  H    0.165746
    13  H    0.147664
    14  H    0.176811
    15  H    0.175777
    16  H    0.165678
    17  H    0.176770
    18  H    0.172656
    19  O   -0.569152
    20  H    0.387949
    21  O   -0.522155
    22  H    0.381664
    23  C    0.067201
    24  H    0.154612
    25  H    0.158899
    26  O   -0.573263
    27  H    0.393217
 Sum of Mulliken atomic charges =   0.00000

 Dipole moment (field-independent basis, Debye):
    X=              1.1081    Y=             -1.1767    Z=             -0.7558  Tot=              1.7843
 Quadrupole moment (field-independent basis, Debye-Ang):
   XX=            -73.4626   YY=            -66.8839   ZZ=            -72.8896
   XY=              6.0739   XZ=             -1.1550   YZ=              3.1441

 Normal termination of Gaussian 09 at Fri May 17 12:34:15 2024.
