 Gaussian 09, Revision C.01,
 Gaussian 09:  AM64L-G09RevC.01 23-Sep-2011

 ------------------------------------------------
 # mpw1pw91/6-31+G** nmr scrf=(pcm,solvent=water)
 ------------------------------------------------

 99/9=1/99;
 -------
 comment
 -------
 Charge =  0 Multiplicity = 1

                         Standard orientation:
 ---------------------------------------------------------------------
 Center     Atomic      Atomic             Coordinates (Angstroms)
 Number     Number       Type             X           Y           Z
 ---------------------------------------------------------------------
      1          6           0       -2.479140    0.318692   -0.414975
      2          6           0       -1.124376   -0.350564   -0.703668
      3          7           0       -0.072889    0.673704   -0.380993
      4          6           0       -0.737728    1.802687    0.291398
      5          6           0       -2.136399    1.817335   -0.325584
      6          6           0        1.017224    0.018731    0.370635
      7          6           0        0.796623   -1.496979    0.167096
      8          6           0       -0.742551   -1.607917    0.107078
      9          1           0       -3.224097    0.093280   -1.183519
     10          1           0       -2.871435   -0.031903    0.545411
     11          1           0       -1.048229   -0.614551   -1.767623
     12          1           0       -0.189359    2.737341    0.133118
     13          1           0       -0.802895    1.641956    1.383173
     14          1           0       -2.099711    2.264174   -1.326348
     15          1           0       -2.853411    2.387168    0.273808
     16          1           0        0.908393    0.223749    1.450561
     17          1           0        1.202573   -2.078466    0.997837
     18          1           0       -1.050691   -2.532834   -0.386874
     19          8           0       -1.308941   -1.669929    1.419786
     20          1           0       -1.116627   -0.837991    1.885263
     21          8           0        1.424825   -2.027763   -1.005448
     22          1           0        1.115206   -1.526644   -1.778587
     23          6           0        2.406633    0.486378   -0.034273
     24          1           0        3.162882   -0.149313    0.449986
     25          1           0        2.529904    0.395524   -1.120642
     26          8           0        2.562431    1.851174    0.376830
     27          1           0        3.419476    2.154548    0.035815
 ---------------------------------------------------------------------

 SCF Done:  E(RmPW1PW91) =  -594.192904800     A.U. after   13 cycles

      1  C    Isotropic =   171.5591   Anisotropy =    21.5779

      2  C    Isotropic =   127.4121   Anisotropy =    59.5676

      3  N    Isotropic =   187.0118   Anisotropy =    95.5689

      4  C    Isotropic =   135.5840   Anisotropy =    54.7030

      5  C    Isotropic =   163.7037   Anisotropy =    26.1017

      6  C    Isotropic =   126.7647   Anisotropy =    40.1872

      7  C    Isotropic =   109.3528   Anisotropy =    29.7807

      8  C    Isotropic =   115.7673   Anisotropy =    34.4598

      9  H    Isotropic =    29.8318   Anisotropy =    11.7460

     10  H    Isotropic =    29.6315   Anisotropy =     7.4453

     11  H    Isotropic =    27.6487   Anisotropy =     7.7942

     12  H    Isotropic =    28.1462   Anisotropy =     8.4675

     13  H    Isotropic =    29.2320   Anisotropy =     7.9703

     14  H    Isotropic =    29.3826   Anisotropy =    10.5039

     15  H    Isotropic =    29.4974   Anisotropy =    11.6159

     16  H    Isotropic =    28.7296   Anisotropy =     5.1201

     17  H    Isotropic =    27.2579   Anisotropy =     5.0546

     18  H    Isotropic =    27.8654   Anisotropy =     6.6247

     19  O    Isotropic =   284.9063   Anisotropy =    36.4368

     20  H    Isotropic =    31.0998   Anisotropy =    12.9711

     21  O    Isotropic =   295.1788   Anisotropy =    28.3802

     22  H    Isotropic =    30.3995   Anisotropy =    13.2294

     23  C    Isotropic =   127.8052   Anisotropy =    46.6936

     24  H    Isotropic =    27.5181   Anisotropy =     6.1272

     25  H    Isotropic =    27.8220   Anisotropy =     5.4105

     26  O    Isotropic =   312.6983   Anisotropy =    84.1312

     27  H    Isotropic =    30.1871   Anisotropy =    21.5675

 The electronic state is 1-A.
 Alpha  occ. eigenvalues --  -19.26361 -19.26338 -19.25442 -14.41287 -10.30945
 Alpha  occ. eigenvalues --  -10.30581 -10.29591 -10.28422 -10.28070 -10.26933
 Alpha  occ. eigenvalues --  -10.24714 -10.24637  -1.07472  -1.06051  -1.05503
 Alpha  occ. eigenvalues --   -0.96405  -0.83056  -0.79140  -0.75620  -0.72217
 Alpha  occ. eigenvalues --   -0.66906  -0.61873  -0.60890  -0.58712  -0.54342
 Alpha  occ. eigenvalues --   -0.53565  -0.52959  -0.50797  -0.48587  -0.46858
 Alpha  occ. eigenvalues --   -0.46395  -0.45602  -0.43530  -0.41935  -0.40386
 Alpha  occ. eigenvalues --   -0.39695  -0.38166  -0.38078  -0.36283  -0.35708
 Alpha  occ. eigenvalues --   -0.35552  -0.34736  -0.33784  -0.32280  -0.29768
 Alpha  occ. eigenvalues --   -0.28384  -0.23213
 Alpha virt. eigenvalues --    0.00612   0.01180   0.01739   0.02218   0.03313
 Alpha virt. eigenvalues --    0.04236   0.04803   0.04909   0.05439   0.07028
 Alpha virt. eigenvalues --    0.07614   0.07978   0.08593   0.08834   0.09534

 Mulliken atomic charges:
              1
     1  C   -0.532092
     2  C    0.149709
     3  N   -0.215430
     4  C   -0.295435
     5  C   -0.294737
     6  C    0.026688
     7  C   -0.248896
     8  C   -0.060110
     9  H    0.177596
    10  H    0.182869
    11  H    0.168666
    12  H    0.172492
    13  H    0.147479
    14  H    0.179069
    15  H    0.176337
    16  H    0.163273
    17  H    0.188752
    18  H    0.182164
    19  O   -0.513035
    20  H    0.383791
    21  O   -0.505014
    22  H    0.379815
    23  C   -0.134128
    24  H    0.160155
    25  H    0.160774
    26  O   -0.593566
    27  H    0.392816
 Sum of Mulliken atomic charges =   0.00000

 Dipole moment (field-independent basis, Debye):
    X=              0.0923    Y=              1.8097    Z=             -0.9721  Tot=              2.0563
 Quadrupole moment (field-independent basis, Debye-Ang):
   XX=            -66.4863   YY=            -83.0195   ZZ=            -70.8423
   XY=              0.3660   XZ=              1.0369   YZ=              1.4410

 Normal termination of Gaussian 09 at Fri May 17 12:23:02 2024.
