 Gaussian 09, Revision C.01,
 Gaussian 09:  AM64L-G09RevC.01 23-Sep-2011

 ------------------------------------------------
 # mpw1pw91/6-31+G** nmr scrf=(pcm,solvent=water)
 ------------------------------------------------

 99/9=1/99;
 -------
 comment
 -------
 Charge =  0 Multiplicity = 1

                         Standard orientation:
 ---------------------------------------------------------------------
 Center     Atomic      Atomic             Coordinates (Angstroms)
 Number     Number       Type             X           Y           Z
 ---------------------------------------------------------------------
      1          6           0        2.365600   -0.541256   -0.666822
      2          6           0        1.074837    0.280079   -0.855650
      3          7           0       -0.061736   -0.650205   -0.545102
      4          6           0        0.512438   -1.933978   -0.075340
      5          6           0        1.962721   -1.638718    0.330639
      6          6           0       -0.975549    0.026052    0.405576
      7          6           0       -0.639460    1.524345    0.275387
      8          6           0        0.882137    1.502796    0.067824
      9          1           0        2.657712   -0.989528   -1.623176
     10          1           0        3.209419    0.069434   -0.326103
     11          1           0        0.994666    0.634294   -1.891889
     12          1           0        0.495687   -2.669312   -0.891363
     13          1           0       -0.091687   -2.342421    0.739582
     14          1           0        2.605577   -2.523505    0.277059
     15          1           0        1.998193   -1.251053    1.353929
     16          1           0       -0.748934   -0.271199    1.441686
     17          1           0       -0.911256    2.079267    1.176213
     18          1           0        1.235840    2.429557   -0.400543
     19          8           0        1.466142    1.349824    1.366659
     20          1           0        2.428109    1.280435    1.250352
     21          8           0       -1.312295    2.189277   -0.799061
     22          1           0       -1.139540    1.698884   -1.620595
     23          6           0       -2.444334   -0.298182    0.141803
     24          1           0       -3.072770    0.229836    0.867044
     25          1           0       -2.732012    0.031431   -0.864061
     26          8           0       -2.736441   -1.692094    0.306466
     27          1           0       -2.266440   -2.157572   -0.405425
 ---------------------------------------------------------------------

 SCF Done:  E(RmPW1PW91) =  -594.194351726     A.U. after   13 cycles

      1  C    Isotropic =   168.0976   Anisotropy =    24.4838

      2  C    Isotropic =   126.4511   Anisotropy =    61.1506

      3  N    Isotropic =   194.6097   Anisotropy =    82.4527

      4  C    Isotropic =   139.7855   Anisotropy =    59.3158

      5  C    Isotropic =   168.2641   Anisotropy =    24.1150

      6  C    Isotropic =   125.0320   Anisotropy =    36.9009

      7  C    Isotropic =   113.7088   Anisotropy =    30.9902

      8  C    Isotropic =   114.8152   Anisotropy =    27.6073

      9  H    Isotropic =    29.6722   Anisotropy =    12.3860

     10  H    Isotropic =    29.9201   Anisotropy =     9.7792

     11  H    Isotropic =    27.8027   Anisotropy =     8.2505

     12  H    Isotropic =    28.5296   Anisotropy =    11.4224

     13  H    Isotropic =    28.6664   Anisotropy =     7.4011

     14  H    Isotropic =    30.0717   Anisotropy =    12.8533

     15  H    Isotropic =    29.8339   Anisotropy =     7.8902

     16  H    Isotropic =    28.5421   Anisotropy =     5.8776

     17  H    Isotropic =    27.4964   Anisotropy =     5.4130

     18  H    Isotropic =    27.6546   Anisotropy =     6.9453

     19  O    Isotropic =   298.8052   Anisotropy =    51.8494

     20  H    Isotropic =    30.0136   Anisotropy =    17.7513

     21  O    Isotropic =   298.0798   Anisotropy =    29.0349

     22  H    Isotropic =    30.4710   Anisotropy =    13.0569

     23  C    Isotropic =   128.1770   Anisotropy =    47.1761

     24  H    Isotropic =    27.8146   Anisotropy =     6.6550

     25  H    Isotropic =    27.8550   Anisotropy =     6.6668

     26  O    Isotropic =   313.5575   Anisotropy =    55.0692

     27  H    Isotropic =    30.3411   Anisotropy =    14.8300

 The electronic state is 1-A.
 Alpha  occ. eigenvalues --  -19.26247 -19.26009 -19.25467 -14.41375 -10.30882
 Alpha  occ. eigenvalues --  -10.30482 -10.29338 -10.28128 -10.27943 -10.26911
 Alpha  occ. eigenvalues --  -10.25214 -10.24409  -1.07370  -1.05907  -1.05498
 Alpha  occ. eigenvalues --   -0.96128  -0.82745  -0.79160  -0.75551  -0.72433
 Alpha  occ. eigenvalues --   -0.66568  -0.62492  -0.60177  -0.58219  -0.55336
 Alpha  occ. eigenvalues --   -0.53460  -0.52089  -0.50641  -0.48939  -0.47071
 Alpha  occ. eigenvalues --   -0.45571  -0.44343  -0.43760  -0.43429  -0.40503
 Alpha  occ. eigenvalues --   -0.39420  -0.38795  -0.37385  -0.36614  -0.35939
 Alpha  occ. eigenvalues --   -0.35180  -0.34753  -0.33689  -0.31171  -0.29939
 Alpha  occ. eigenvalues --   -0.28802  -0.23226
 Alpha virt. eigenvalues --    0.00422   0.01266   0.02015   0.02230   0.03212
 Alpha virt. eigenvalues --    0.04247   0.04631   0.05195   0.05383   0.06695
 Alpha virt. eigenvalues --    0.07496   0.08183   0.08264   0.08745   0.09502

 Mulliken atomic charges:
              1
     1  C   -0.485665
     2  C   -0.002017
     3  N   -0.237710
     4  C   -0.259648
     5  C   -0.303064
     6  C    0.174770
     7  C   -0.283459
     8  C    0.064419
     9  H    0.185571
    10  H    0.163691
    11  H    0.167334
    12  H    0.166352
    13  H    0.169914
    14  H    0.172051
    15  H    0.180997
    16  H    0.179269
    17  H    0.185008
    18  H    0.174436
    19  O   -0.552097
    20  H    0.378328
    21  O   -0.507251
    22  H    0.380969
    23  C   -0.271979
    24  H    0.166985
    25  H    0.158805
    26  O   -0.543382
    27  H    0.377371
 Sum of Mulliken atomic charges =   0.00000

 Dipole moment (field-independent basis, Debye):
    X=              4.8829    Y=             -0.7153    Z=             -2.1875  Tot=              5.3981
 Quadrupole moment (field-independent basis, Debye-Ang):
   XX=            -74.3329   YY=            -78.3734   ZZ=            -73.1969
   XY=             -1.1671   XZ=              0.9852   YZ=              1.4590

 Normal termination of Gaussian 09 at Fri May 17 12:18:46 2024.
