 Gaussian 09, Revision C.01,
 Gaussian 09:  AM64L-G09RevC.01 23-Sep-2011

 ------------------------------------------------
 # mpw1pw91/6-31+G** nmr scrf=(pcm,solvent=water)
 ------------------------------------------------

 99/9=1/99;
 -------
 comment
 -------
 Charge =  0 Multiplicity = 1

                         Standard orientation:
 ---------------------------------------------------------------------
 Center     Atomic      Atomic             Coordinates (Angstroms)
 Number     Number       Type             X           Y           Z
 ---------------------------------------------------------------------
      1          6           0       -2.464067    0.311502   -0.430026
      2          6           0       -1.105061   -0.352520   -0.710647
      3          7           0       -0.058053    0.674200   -0.378213
      4          6           0       -0.733621    1.790092    0.308741
      5          6           0       -2.126954    1.809933   -0.319294
      6          6           0        1.026280    0.012849    0.381232
      7          6           0        0.807370   -1.495296    0.172166
      8          6           0       -0.729232   -1.608721    0.105619
      9          1           0       -3.199258    0.093502   -1.210101
     10          1           0       -2.867510   -0.050413    0.521526
     11          1           0       -1.014851   -0.618230   -1.770726
     12          1           0       -0.189782    2.731319    0.171018
     13          1           0       -0.807520    1.610712    1.396974
     14          1           0       -2.083267    2.269624   -1.313888
     15          1           0       -2.849912    2.370419    0.281776
     16          1           0        0.904208    0.211058    1.460435
     17          1           0        1.219521   -2.084701    1.000067
     18          1           0       -1.036972   -2.532782   -0.392796
     19          8           0       -1.304870   -1.676547    1.413388
     20          1           0       -1.110941   -0.848796    1.885526
     21          8           0        1.401798   -1.892693   -1.069392
     22          1           0        1.220272   -2.841243   -1.178825
     23          6           0        2.420616    0.502242   -0.003097
     24          1           0        3.174307   -0.067481    0.551098
     25          1           0        2.597252    0.352259   -1.074218
     26          8           0        2.628953    1.876672    0.348205
     27          1           0        2.071804    2.405405   -0.246153
 ---------------------------------------------------------------------

 SCF Done:  E(RmPW1PW91) =  -594.194659934     A.U. after   13 cycles

      1  C    Isotropic =   172.0779   Anisotropy =    20.8796

      2  C    Isotropic =   126.2884   Anisotropy =    58.5297

      3  N    Isotropic =   186.5531   Anisotropy =    92.1555

      4  C    Isotropic =   134.7411   Anisotropy =    54.4782

      5  C    Isotropic =   163.3199   Anisotropy =    27.0148

      6  C    Isotropic =   125.2538   Anisotropy =    38.7247

      7  C    Isotropic =   110.8840   Anisotropy =    30.2449

      8  C    Isotropic =   114.9478   Anisotropy =    34.9726

      9  H    Isotropic =    29.8612   Anisotropy =    11.7757

     10  H    Isotropic =    29.6592   Anisotropy =     7.4077

     11  H    Isotropic =    27.4251   Anisotropy =     7.6567

     12  H    Isotropic =    28.3703   Anisotropy =     8.4749

     13  H    Isotropic =    29.2191   Anisotropy =     7.8300

     14  H    Isotropic =    29.3528   Anisotropy =    10.5225

     15  H    Isotropic =    29.4667   Anisotropy =    11.6428

     16  H    Isotropic =    28.8098   Anisotropy =     5.3587

     17  H    Isotropic =    27.0970   Anisotropy =     5.1074

     18  H    Isotropic =    28.0220   Anisotropy =     6.5418

     19  O    Isotropic =   286.2062   Anisotropy =    41.9667

     20  H    Isotropic =    31.1878   Anisotropy =    13.1196

     21  O    Isotropic =   292.8876   Anisotropy =    67.7668

     22  H    Isotropic =    30.2941   Anisotropy =    19.9042

     23  C    Isotropic =   128.2265   Anisotropy =    47.6857

     24  H    Isotropic =    27.7943   Anisotropy =     6.5475

     25  H    Isotropic =    27.5940   Anisotropy =     6.1045

     26  O    Isotropic =   310.0528   Anisotropy =    41.8054

     27  H    Isotropic =    30.2804   Anisotropy =    15.2489

 The electronic state is 1-A.
 Alpha  occ. eigenvalues --  -19.26340 -19.26142 -19.25521 -14.41406 -10.30894
 Alpha  occ. eigenvalues --  -10.30614 -10.29421 -10.28365 -10.27810 -10.27251
 Alpha  occ. eigenvalues --  -10.24725 -10.24628  -1.07441  -1.05995  -1.05547
 Alpha  occ. eigenvalues --   -0.96407  -0.83097  -0.79060  -0.75547  -0.71985
 Alpha  occ. eigenvalues --   -0.67077  -0.61535  -0.60775  -0.58207  -0.55932
 Alpha  occ. eigenvalues --   -0.53873  -0.51937  -0.51412  -0.48035  -0.47045
 Alpha  occ. eigenvalues --   -0.45757  -0.45139  -0.43712  -0.42274  -0.40936
 Alpha  occ. eigenvalues --   -0.39873  -0.38294  -0.37200  -0.36727  -0.35776
 Alpha  occ. eigenvalues --   -0.34789  -0.34725  -0.33885  -0.32396  -0.29983
 Alpha  occ. eigenvalues --   -0.28435  -0.23307
 Alpha virt. eigenvalues --    0.00533   0.01388   0.01737   0.02135   0.03486
 Alpha virt. eigenvalues --    0.04238   0.04659   0.05173   0.05412   0.06673
 Alpha virt. eigenvalues --    0.07577   0.07958   0.08643   0.08749   0.09618

 Mulliken atomic charges:
              1
     1  C   -0.520369
     2  C    0.079278
     3  N   -0.274771
     4  C   -0.223168
     5  C   -0.343594
     6  C    0.204389
     7  C   -0.183131
     8  C   -0.057505
     9  H    0.177159
    10  H    0.182573
    11  H    0.173373
    12  H    0.160245
    13  H    0.152105
    14  H    0.179853
    15  H    0.177152
    16  H    0.165288
    17  H    0.181666
    18  H    0.174216
    19  O   -0.513813
    20  H    0.383982
    21  O   -0.548491
    22  H    0.386971
    23  C   -0.283590
    24  H    0.164917
    25  H    0.172446
    26  O   -0.541962
    27  H    0.374780
 Sum of Mulliken atomic charges =   0.00000

 Dipole moment (field-independent basis, Debye):
    X=             -2.4512    Y=             -0.9867    Z=             -0.1996  Tot=              2.6499
 Quadrupole moment (field-independent basis, Debye-Ang):
   XX=            -81.5554   YY=            -68.0911   ZZ=            -74.7047
   XY=             -9.8519   XZ=              1.6089   YZ=              2.1908

 Normal termination of Gaussian 09 at Fri May 17 12:56:50 2024.
