 Gaussian 09, Revision C.01,
 Gaussian 09:  AM64L-G09RevC.01 23-Sep-2011

 ------------------------------------------------
 # mpw1pw91/6-31+G** nmr scrf=(pcm,solvent=water)
 ------------------------------------------------

 99/9=1/99;
 -------
 comment
 -------
 Charge =  0 Multiplicity = 1

                         Standard orientation:
 ---------------------------------------------------------------------
 Center     Atomic      Atomic             Coordinates (Angstroms)
 Number     Number       Type             X           Y           Z
 ---------------------------------------------------------------------
      1          6           0        2.372775    0.126944   -0.127301
      2          6           0        0.983236    0.134858   -0.783778
      3          7           0        0.218043   -0.996223   -0.139612
      4          6           0        1.142460   -1.694582    0.791825
      5          6           0        2.541107   -1.342332    0.283352
      6          6           0       -0.998399   -0.436613    0.494513
      7          6           0       -0.720624    1.070019    0.655183
      8          6           0        0.126593    1.406070   -0.567890
      9          1           0        3.154173    0.484184   -0.805018
     10          1           0        2.382017    0.766889    0.762273
     11          1           0        1.088930   -0.062730   -1.856836
     12          1           0        0.943670   -2.772162    0.798444
     13          1           0        1.018020   -1.328249    1.822381
     14          1           0        2.799022   -1.956669   -0.588083
     15          1           0        3.311530   -1.495314    1.045345
     16          1           0       -1.151416   -0.922256    1.464276
     17          1           0       -0.107094    1.230407    1.552652
     18          1           0       -0.541143    1.555092   -1.427002
     19          8           0        0.866367    2.604009   -0.333289
     20          1           0        1.321090    2.828616   -1.162292
     21          8           0       -1.878236    1.904646    0.700177
     22          1           0       -2.328168    1.729650    1.543957
     23          6           0       -2.220571   -0.751070   -0.377989
     24          1           0       -3.147416   -0.498782    0.145032
     25          1           0       -2.193023   -0.173047   -1.313880
     26          8           0       -2.252709   -2.151100   -0.658826
     27          1           0       -1.319333   -2.352263   -0.875951
 ---------------------------------------------------------------------

 SCF Done:  E(RmPW1PW91) =  -594.197400230     A.U. after   12 cycles

      1  C    Isotropic =   166.1643   Anisotropy =    18.6959

      2  C    Isotropic =   129.5589   Anisotropy =    51.6703

      3  N    Isotropic =   200.6944   Anisotropy =    77.3078

      4  C    Isotropic =   136.4159   Anisotropy =    59.2613

      5  C    Isotropic =   167.2148   Anisotropy =    19.5793

      6  C    Isotropic =   126.1433   Anisotropy =    40.0961

      7  C    Isotropic =   120.3741   Anisotropy =    50.9723

      8  C    Isotropic =   117.5029   Anisotropy =    37.2099

      9  H    Isotropic =    29.9124   Anisotropy =    10.8809

     10  H    Isotropic =    29.7686   Anisotropy =     6.9556

     11  H    Isotropic =    28.0078   Anisotropy =     8.0615

     12  H    Isotropic =    28.2963   Anisotropy =     9.5265

     13  H    Isotropic =    28.9814   Anisotropy =     8.6631

     14  H    Isotropic =    29.7837   Anisotropy =    11.0486

     15  H    Isotropic =    29.6566   Anisotropy =    11.7590

     16  H    Isotropic =    28.7617   Anisotropy =     6.0139

     17  H    Isotropic =    27.1588   Anisotropy =     3.6229

     18  H    Isotropic =    27.1356   Anisotropy =     3.3484

     19  O    Isotropic =   301.5203   Anisotropy =    57.4823

     20  H    Isotropic =    30.1518   Anisotropy =    19.9572

     21  O    Isotropic =   306.9865   Anisotropy =    69.6225

     22  H    Isotropic =    30.1844   Anisotropy =    20.0722

     23  C    Isotropic =   133.7556   Anisotropy =    50.4514

     24  H    Isotropic =    28.0349   Anisotropy =     5.9594

     25  H    Isotropic =    28.2692   Anisotropy =     5.9490

     26  O    Isotropic =   316.9177   Anisotropy =    34.2915

     27  H    Isotropic =    28.5825   Anisotropy =    16.7875

 The electronic state is 1-A.
 Alpha  occ. eigenvalues --  -19.26135 -19.25992 -19.24655 -14.42041 -10.30707
 Alpha  occ. eigenvalues --  -10.30622 -10.29042 -10.28126 -10.27978 -10.27157
 Alpha  occ. eigenvalues --  -10.24711 -10.24599  -1.07291  -1.05623  -1.05086
 Alpha  occ. eigenvalues --   -0.96644  -0.82969  -0.79290  -0.74844  -0.72127
 Alpha  occ. eigenvalues --   -0.66696  -0.61269  -0.60177  -0.58747  -0.55966
 Alpha  occ. eigenvalues --   -0.53510  -0.51540  -0.49986  -0.49212  -0.46669
 Alpha  occ. eigenvalues --   -0.45406  -0.44937  -0.44195  -0.43348  -0.40354
 Alpha  occ. eigenvalues --   -0.39600  -0.38288  -0.37555  -0.36426  -0.35700
 Alpha  occ. eigenvalues --   -0.35113  -0.34334  -0.32767  -0.31019  -0.29946
 Alpha  occ. eigenvalues --   -0.29077  -0.23678
 Alpha virt. eigenvalues --    0.00636   0.01006   0.01596   0.02029   0.03746
 Alpha virt. eigenvalues --    0.04501   0.04555   0.04965   0.05366   0.07236
 Alpha virt. eigenvalues --    0.08104   0.08283   0.08629   0.09361   0.09786

 Mulliken atomic charges:
              1
     1  C   -0.406314
     2  C   -0.069883
     3  N   -0.208549
     4  C   -0.198080
     5  C   -0.335659
     6  C   -0.054420
     7  C   -0.220622
     8  C   -0.061022
     9  H    0.177783
    10  H    0.185934
    11  H    0.174292
    12  H    0.167800
    13  H    0.164822
    14  H    0.178834
    15  H    0.178191
    16  H    0.180504
    17  H    0.179415
    18  H    0.176950
    19  O   -0.532090
    20  H    0.388271
    21  O   -0.532278
    22  H    0.389703
    23  C   -0.089677
    24  H    0.166406
    25  H    0.151032
    26  O   -0.534090
    27  H    0.382749
 Sum of Mulliken atomic charges =   0.00000

 Dipole moment (field-independent basis, Debye):
    X=              3.7100    Y=              0.1367    Z=              0.9193  Tot=              3.8247
 Quadrupole moment (field-independent basis, Debye-Ang):
   XX=            -75.2521   YY=            -86.9446   ZZ=            -64.5861
   XY=             -6.1666   XZ=             -8.4985   YZ=             -5.6809

 Normal termination of Gaussian 09 at Fri May 17 12:20:01 2024.
