 Gaussian 09, Revision C.01,
 Gaussian 09:  AM64L-G09RevC.01 23-Sep-2011

 ------------------------------------------------
 # mpw1pw91/6-31+G** nmr scrf=(pcm,solvent=water)
 ------------------------------------------------

 99/9=1/99;
 -------
 comment
 -------
 Charge =  0 Multiplicity = 1

                         Standard orientation:
 ---------------------------------------------------------------------
 Center     Atomic      Atomic             Coordinates (Angstroms)
 Number     Number       Type             X           Y           Z
 ---------------------------------------------------------------------
      1          6           0        2.610524    0.212407   -0.273398
      2          6           0        1.149832    0.484173   -0.678302
      3          7           0        0.389097   -0.781165   -0.387584
      4          6           0        1.288389   -1.687392    0.348665
      5          6           0        2.681710   -1.322436   -0.166789
      6          6           0       -0.865896   -0.431165    0.306522
      7          6           0       -1.064369    1.074588    0.027687
      8          6           0        0.384659    1.604786    0.042561
      9          1           0        3.320160    0.623816   -0.997274
     10          1           0        2.823723    0.663879    0.699373
     11          1           0        1.092075    0.694854   -1.754444
     12          1           0        1.030363   -2.737316    0.168716
     13          1           0        1.228374   -1.515774    1.437899
     14          1           0        2.850448   -1.770543   -1.153357
     15          1           0        3.477531   -1.668725    0.500088
     16          1           0       -0.750599   -0.547026    1.396576
     17          1           0       -1.671101    1.554746    0.800166
     18          1           0        0.463519    2.567883   -0.477346
     19          8           0        0.851223    1.717314    1.390520
     20          1           0        0.291120    2.378528    1.831235
     21          8           0       -1.735760    1.357384   -1.204649
     22          1           0       -1.286997    0.874455   -1.919171
     23          6           0       -2.032295   -1.317373   -0.131663
     24          1           0       -2.192055   -1.229384   -1.213896
     25          1           0       -1.796778   -2.363998    0.086301
     26          8           0       -3.236163   -1.024545    0.587789
     27          1           0       -3.553174   -0.163988    0.267254
 ---------------------------------------------------------------------

 SCF Done:  E(RmPW1PW91) =  -594.195950960     A.U. after   13 cycles

      1  C    Isotropic =   172.2073   Anisotropy =    21.2711

      2  C    Isotropic =   127.8035   Anisotropy =    60.7687

      3  N    Isotropic =   193.3146   Anisotropy =    89.4854

      4  C    Isotropic =   138.4610   Anisotropy =    56.6576

      5  C    Isotropic =   163.7374   Anisotropy =    26.0946

      6  C    Isotropic =   125.3130   Anisotropy =    56.8333

      7  C    Isotropic =   110.9389   Anisotropy =    35.5605

      8  C    Isotropic =   118.2977   Anisotropy =    32.4900

      9  H    Isotropic =    29.9387   Anisotropy =    11.7221

     10  H    Isotropic =    29.3477   Anisotropy =     7.4293

     11  H    Isotropic =    27.7520   Anisotropy =     7.7701

     12  H    Isotropic =    28.4481   Anisotropy =     9.5481

     13  H    Isotropic =    29.1541   Anisotropy =     7.9751

     14  H    Isotropic =    29.4370   Anisotropy =    10.7206

     15  H    Isotropic =    29.5054   Anisotropy =    11.6234

     16  H    Isotropic =    28.5442   Anisotropy =     4.3104

     17  H    Isotropic =    27.3644   Anisotropy =     4.2367

     18  H    Isotropic =    27.6542   Anisotropy =     6.6803

     19  O    Isotropic =   289.0316   Anisotropy =    82.9851

     20  H    Isotropic =    30.2677   Anisotropy =    19.7023

     21  O    Isotropic =   302.0508   Anisotropy =    33.9414

     22  H    Isotropic =    30.2164   Anisotropy =    14.4010

     23  C    Isotropic =   132.5192   Anisotropy =    73.0173

     24  H    Isotropic =    27.7953   Anisotropy =     3.2217

     25  H    Isotropic =    27.9211   Anisotropy =     5.0032

     26  O    Isotropic =   311.4371   Anisotropy =    35.9766

     27  H    Isotropic =    30.2268   Anisotropy =    15.4604

 The electronic state is 1-A.
 Alpha  occ. eigenvalues --  -19.26519 -19.26031 -19.25666 -14.41295 -10.30878
 Alpha  occ. eigenvalues --  -10.30514 -10.29467 -10.28029 -10.27884 -10.26830
 Alpha  occ. eigenvalues --  -10.24571 -10.24450  -1.07545  -1.06085  -1.05514
 Alpha  occ. eigenvalues --   -0.96299  -0.82682  -0.79284  -0.74969  -0.72105
 Alpha  occ. eigenvalues --   -0.67077  -0.61903  -0.60743  -0.57467  -0.54815
 Alpha  occ. eigenvalues --   -0.53991  -0.52661  -0.51393  -0.48847  -0.47407
 Alpha  occ. eigenvalues --   -0.45238  -0.43639  -0.43051  -0.42211  -0.41577
 Alpha  occ. eigenvalues --   -0.38755  -0.38636  -0.38206  -0.37524  -0.35643
 Alpha  occ. eigenvalues --   -0.35134  -0.34076  -0.32489  -0.32370  -0.30053
 Alpha  occ. eigenvalues --   -0.28509  -0.23295
 Alpha virt. eigenvalues --    0.00534   0.01124   0.01625   0.02443   0.03758
 Alpha virt. eigenvalues --    0.04321   0.04571   0.05067   0.05454   0.06547
 Alpha virt. eigenvalues --    0.07545   0.08043   0.08754   0.09129   0.09453

 Mulliken atomic charges:
              1
     1  C   -0.530314
     2  C    0.082094
     3  N   -0.161617
     4  C   -0.235030
     5  C   -0.359336
     6  C   -0.172597
     7  C   -0.263009
     8  C    0.091184
     9  H    0.173569
    10  H    0.190778
    11  H    0.170005
    12  H    0.165854
    13  H    0.148253
    14  H    0.176925
    15  H    0.175819
    16  H    0.168533
    17  H    0.181378
    18  H    0.174098
    19  O   -0.567675
    20  H    0.388035
    21  O   -0.523112
    22  H    0.383972
    23  C   -0.030363
    24  H    0.160151
    25  H    0.167769
    26  O   -0.536508
    27  H    0.381144
 Sum of Mulliken atomic charges =   0.00000

 Dipole moment (field-independent basis, Debye):
    X=              2.1448    Y=              1.7535    Z=             -0.8300  Tot=              2.8920
 Quadrupole moment (field-independent basis, Debye-Ang):
   XX=            -80.9805   YY=            -70.9739   ZZ=            -72.1845
   XY=             -6.0187   XZ=             -0.4910   YZ=              3.6083

 Normal termination of Gaussian 09 at Fri May 17 12:18:00 2024.
