 Gaussian 09, Revision C.01,
 Gaussian 09:  AM64L-G09RevC.01 23-Sep-2011

 ------------------------------------------------
 # mpw1pw91/6-31+G** nmr scrf=(pcm,solvent=water)
 ------------------------------------------------

 99/9=1/99;
 -------
 comment
 -------
 Charge =  0 Multiplicity = 1

                         Standard orientation:
 ---------------------------------------------------------------------
 Center     Atomic      Atomic             Coordinates (Angstroms)
 Number     Number       Type             X           Y           Z
 ---------------------------------------------------------------------
      1          6           0        2.257113   -0.759665   -0.079627
      2          6           0        1.035423   -0.216275   -0.884555
      3          7           0       -0.165002   -0.990831   -0.430612
      4          6           0        0.369364   -2.208828    0.212449
      5          6           0        1.661136   -1.774926    0.915982
      6          6           0       -0.982367   -0.123755    0.475808
      7          6           0       -0.180289    1.173953    0.655406
      8          6           0        0.640439    1.252664   -0.634395
      9          1           0        2.952111   -1.255935   -0.764727
     10          1           0        2.821237    0.032041    0.423867
     11          1           0        1.200702   -0.382831   -1.953461
     12          1           0        0.599173   -2.945049   -0.568921
     13          1           0       -0.381250   -2.650209    0.873374
     14          1           0        2.336233   -2.611226    1.124688
     15          1           0        1.422501   -1.290132    1.870530
     16          1           0       -1.131692   -0.633660    1.433123
     17          1           0        0.515985    1.064461    1.501477
     18          1           0       -0.014694    1.589340   -1.444829
     19          8           0        1.698931    2.202924   -0.604211
     20          1           0        2.245971    2.017397    0.178018
     21          8           0       -1.031357    2.296225    0.877129
     22          1           0       -0.460384    3.083393    0.857964
     23          6           0       -2.364058    0.091050   -0.161024
     24          1           0       -3.052101    0.556040    0.550263
     25          1           0       -2.286660    0.748329   -1.039389
     26          8           0       -2.923722   -1.170519   -0.528574
     27          1           0       -2.183506   -1.620485   -0.982714
 ---------------------------------------------------------------------

 SCF Done:  E(RmPW1PW91) =  -594.196050840     A.U. after   13 cycles

      1  C    Isotropic =   169.2938   Anisotropy =    23.6525

      2  C    Isotropic =   130.1384   Anisotropy =    61.7869

      3  N    Isotropic =   195.7324   Anisotropy =    60.9987

      4  C    Isotropic =   137.2266   Anisotropy =    59.9547

      5  C    Isotropic =   168.8582   Anisotropy =    19.7537

      6  C    Isotropic =   127.5460   Anisotropy =    43.1675

      7  C    Isotropic =   118.1652   Anisotropy =    41.3175

      8  C    Isotropic =   115.2733   Anisotropy =    40.1346

      9  H    Isotropic =    29.9384   Anisotropy =    12.5034

     10  H    Isotropic =    30.1351   Anisotropy =     7.8167

     11  H    Isotropic =    27.9922   Anisotropy =     8.8743

     12  H    Isotropic =    28.6563   Anisotropy =    11.5815

     13  H    Isotropic =    28.7444   Anisotropy =     9.0560

     14  H    Isotropic =    29.9207   Anisotropy =    12.5543

     15  H    Isotropic =    30.1167   Anisotropy =     8.8567

     16  H    Isotropic =    28.7807   Anisotropy =     5.9062

     17  H    Isotropic =    27.7400   Anisotropy =     5.0563

     18  H    Isotropic =    27.2989   Anisotropy =     2.8941

     19  O    Isotropic =   300.1657   Anisotropy =    65.7606

     20  H    Isotropic =    30.5116   Anisotropy =    15.5352

     21  O    Isotropic =   307.2991   Anisotropy =    37.2747

     22  H    Isotropic =    29.6745   Anisotropy =    18.5751

     23  C    Isotropic =   132.4079   Anisotropy =    46.3042

     24  H    Isotropic =    27.9871   Anisotropy =     6.0964

     25  H    Isotropic =    28.1831   Anisotropy =     6.3619

     26  O    Isotropic =   319.5753   Anisotropy =    36.7797

     27  H    Isotropic =    28.6495   Anisotropy =    16.2674

 The electronic state is 1-A.
 Alpha  occ. eigenvalues --  -19.26706 -19.26246 -19.24762 -14.42387 -10.30999
 Alpha  occ. eigenvalues --  -10.30790 -10.29061 -10.28561 -10.28317 -10.27248
 Alpha  occ. eigenvalues --  -10.25116 -10.24713  -1.07890  -1.05991  -1.05183
 Alpha  occ. eigenvalues --   -0.97124  -0.82664  -0.79367  -0.75749  -0.71606
 Alpha  occ. eigenvalues --   -0.67529  -0.62676  -0.60364  -0.58109  -0.56358
 Alpha  occ. eigenvalues --   -0.54341  -0.50539  -0.49876  -0.49506  -0.47356
 Alpha  occ. eigenvalues --   -0.46122  -0.45610  -0.43638  -0.42902  -0.41104
 Alpha  occ. eigenvalues --   -0.39681  -0.38750  -0.38316  -0.37046  -0.35911
 Alpha  occ. eigenvalues --   -0.34996  -0.34137  -0.33427  -0.32286  -0.29553
 Alpha  occ. eigenvalues --   -0.28410  -0.24545
 Alpha virt. eigenvalues --    0.00539   0.01002   0.01735   0.02137   0.03779
 Alpha virt. eigenvalues --    0.04095   0.04623   0.04829   0.05182   0.06913
 Alpha virt. eigenvalues --    0.07917   0.08109   0.08925   0.08974   0.09663

 Mulliken atomic charges:
              1
     1  C   -0.381436
     2  C   -0.025453
     3  N   -0.209127
     4  C   -0.193288
     5  C   -0.276633
     6  C   -0.133879
     7  C   -0.089861
     8  C   -0.225763
     9  H    0.183337
    10  H    0.153079
    11  H    0.178504
    12  H    0.172916
    13  H    0.173938
    14  H    0.176519
    15  H    0.175340
    16  H    0.181070
    17  H    0.174626
    18  H    0.187217
    19  O   -0.508850
    20  H    0.364316
    21  O   -0.524594
    22  H    0.384053
    23  C   -0.112851
    24  H    0.171052
    25  H    0.152011
    26  O   -0.527067
    27  H    0.380825
 Sum of Mulliken atomic charges =   0.00000

 Dipole moment (field-independent basis, Debye):
    X=              5.4471    Y=             -0.6237    Z=              2.0432  Tot=              5.8510
 Quadrupole moment (field-independent basis, Debye-Ang):
   XX=            -85.1406   YY=            -72.8968   ZZ=            -72.5208
   XY=             -5.0690   XZ=              2.9238   YZ=              2.7308

 Normal termination of Gaussian 09 at Fri May 17 12:40:21 2024.
