 Gaussian 09, Revision C.01,
 Gaussian 09:  AM64L-G09RevC.01 23-Sep-2011

 ------------------------------------------------
 # mpw1pw91/6-31+G** nmr scrf=(pcm,solvent=water)
 ------------------------------------------------

 99/9=1/99;
 -------
 comment
 -------
 Charge =  0 Multiplicity = 1

                         Standard orientation:
 ---------------------------------------------------------------------
 Center     Atomic      Atomic             Coordinates (Angstroms)
 Number     Number       Type             X           Y           Z
 ---------------------------------------------------------------------
      1          6           0       -2.458803    0.449069    0.050416
      2          6           0       -1.125395    0.271700    0.796855
      3          7           0       -0.567594   -1.052902    0.332887
      4          6           0       -1.556500   -1.659032   -0.592292
      5          6           0       -2.884732   -0.999791   -0.223355
      6          6           0        0.762361   -0.820636   -0.271218
      7          6           0        0.757793    0.675875   -0.653072
      8          6           0       -0.029041    1.310029    0.500844
      9          1           0       -3.189488    1.017209    0.633980
     10          1           0       -2.304164    0.976013   -0.897598
     11          1           0       -1.319121    0.225400    1.874650
     12          1           0       -1.575187   -2.749583   -0.482807
     13          1           0       -1.309961   -1.438549   -1.642774
     14          1           0       -3.299733   -1.455696    0.683994
     15          1           0       -3.630087   -1.089410   -1.019690
     16          1           0        0.880858   -1.451904   -1.157958
     17          1           0        0.162162    0.800058   -1.567583
     18          1           0        0.639762    1.409314    1.367281
     19          8           0       -0.588116    2.587602    0.192968
     20          1           0        0.162379    3.180211    0.015883
     21          8           0        2.026333    1.286347   -0.886439
     22          1           0        2.699444    0.677762   -0.512597
     23          6           0        1.869484   -1.202661    0.717840
     24          1           0        1.810355   -0.597017    1.630223
     25          1           0        1.754634   -2.255768    1.003306
     26          8           0        3.143140   -0.999007    0.071742
     27          1           0        3.829442   -1.024576    0.759203
 ---------------------------------------------------------------------

 SCF Done:  E(RmPW1PW91) =  -594.195849049     A.U. after   13 cycles

      1  C    Isotropic =   166.4617   Anisotropy =    18.7856

      2  C    Isotropic =   131.2327   Anisotropy =    52.6924

      3  N    Isotropic =   201.8251   Anisotropy =    71.5198

      4  C    Isotropic =   137.2087   Anisotropy =    57.8230

      5  C    Isotropic =   167.3110   Anisotropy =    19.3791

      6  C    Isotropic =   132.7031   Anisotropy =    56.2686

      7  C    Isotropic =   117.4758   Anisotropy =    50.1587

      8  C    Isotropic =   115.8722   Anisotropy =    32.1581

      9  H    Isotropic =    29.9155   Anisotropy =    10.7832

     10  H    Isotropic =    29.7659   Anisotropy =     6.7459

     11  H    Isotropic =    27.9799   Anisotropy =     8.5150

     12  H    Isotropic =    28.3093   Anisotropy =     9.8510

     13  H    Isotropic =    29.0071   Anisotropy =     8.3189

     14  H    Isotropic =    29.8741   Anisotropy =    11.1610

     15  H    Isotropic =    29.6974   Anisotropy =    11.7478

     16  H    Isotropic =    28.5872   Anisotropy =     5.1839

     17  H    Isotropic =    27.3854   Anisotropy =     4.4632

     18  H    Isotropic =    27.2284   Anisotropy =     4.0980

     19  O    Isotropic =   309.1008   Anisotropy =    41.4571

     20  H    Isotropic =    29.5634   Anisotropy =    19.1743

     21  O    Isotropic =   315.2496   Anisotropy =    50.7868

     22  H    Isotropic =    26.1732   Anisotropy =    25.7060

     23  C    Isotropic =   128.5509   Anisotropy =    70.8533

     24  H    Isotropic =    27.5418   Anisotropy =     3.5211

     25  H    Isotropic =    27.6263   Anisotropy =     5.5138

     26  O    Isotropic =   311.2140   Anisotropy =    85.4547

     27  H    Isotropic =    29.9711   Anisotropy =    20.9762

 The electronic state is 1-A.
 Alpha  occ. eigenvalues --  -19.27276 -19.25760 -19.24609 -14.41601 -10.30262
 Alpha  occ. eigenvalues --  -10.30049 -10.29977 -10.28615 -10.27849 -10.26995
 Alpha  occ. eigenvalues --  -10.24576 -10.24453  -1.07620  -1.06379  -1.04385
 Alpha  occ. eigenvalues --   -0.96710  -0.82980  -0.79099  -0.75146  -0.71870
 Alpha  occ. eigenvalues --   -0.66963  -0.61196  -0.60846  -0.57973  -0.54567
 Alpha  occ. eigenvalues --   -0.54429  -0.53263  -0.50069  -0.48755  -0.47722
 Alpha  occ. eigenvalues --   -0.46492  -0.43840  -0.43191  -0.42355  -0.40872
 Alpha  occ. eigenvalues --   -0.40444  -0.38786  -0.37318  -0.36109  -0.35597
 Alpha  occ. eigenvalues --   -0.35252  -0.34415  -0.33969  -0.31765  -0.30336
 Alpha  occ. eigenvalues --   -0.27436  -0.23304
 Alpha virt. eigenvalues --    0.00458   0.01340   0.01773   0.01932   0.03574
 Alpha virt. eigenvalues --    0.04507   0.04873   0.05070   0.05488   0.06445
 Alpha virt. eigenvalues --    0.08056   0.08412   0.08964   0.09453   0.09537

 Mulliken atomic charges:
              1
     1  C   -0.379285
     2  C   -0.081820
     3  N   -0.085763
     4  C   -0.212282
     5  C   -0.350265
     6  C   -0.426230
     7  C   -0.167743
     8  C    0.046623
     9  H    0.175245
    10  H    0.182098
    11  H    0.171547
    12  H    0.164750
    13  H    0.161704
    14  H    0.177966
    15  H    0.177965
    16  H    0.179712
    17  H    0.176353
    18  H    0.167457
    19  O   -0.536983
    20  H    0.384026
    21  O   -0.559500
    22  H    0.407768
    23  C    0.063656
    24  H    0.173099
    25  H    0.177313
    26  O   -0.595886
    27  H    0.408473
 Sum of Mulliken atomic charges =   0.00000

 Dipole moment (field-independent basis, Debye):
    X=              0.8279    Y=             -2.3444    Z=              2.1489  Tot=              3.2862
 Quadrupole moment (field-independent basis, Debye-Ang):
   XX=            -66.6505   YY=            -76.8219   ZZ=            -72.4483
   XY=              0.2586   XZ=             11.1817   YZ=              1.8952

 Normal termination of Gaussian 09 at Fri May 17 12:44:23 2024.
