 Gaussian 09, Revision C.01,
 Gaussian 09:  AM64L-G09RevC.01 23-Sep-2011

 ------------------------------------------------
 # mpw1pw91/6-31+G** nmr scrf=(pcm,solvent=water)
 ------------------------------------------------

 99/9=1/99;
 -------
 comment
 -------
 Charge =  0 Multiplicity = 1

                         Standard orientation:
 ---------------------------------------------------------------------
 Center     Atomic      Atomic             Coordinates (Angstroms)
 Number     Number       Type             X           Y           Z
 ---------------------------------------------------------------------
      1          6           0       -1.836423    1.385556    0.085349
      2          6           0       -1.074913    0.466544   -0.886938
      3          7           0        0.385647    0.728558   -0.645707
      4          6           0        0.489331    1.664964    0.498631
      5          6           0       -0.803387    2.474030    0.412938
      6          6           0        1.038289   -0.597083   -0.505050
      7          6           0       -0.032110   -1.553922    0.034596
      8          6           0       -1.281539   -1.071323   -0.718725
      9          1           0       -2.760844    1.777503   -0.350250
     10          1           0       -2.102776    0.840599    0.996715
     11          1           0       -1.323623    0.736504   -1.920165
     12          1           0        1.392352    2.278907    0.408062
     13          1           0        0.529322    1.156679    1.471342
     14          1           0       -0.744746    3.206958   -0.400923
     15          1           0       -1.022652    3.012676    1.340243
     16          1           0        1.272160   -0.958086   -1.518318
     17          1           0        0.202592   -2.602652   -0.193951
     18          1           0       -1.295241   -1.543027   -1.709369
     19          8           0       -2.435530   -1.476019    0.018234
     20          1           0       -3.211869   -1.033792   -0.363301
     21          8           0       -0.199750   -1.390748    1.446896
     22          1           0       -1.143885   -1.563240    1.620111
     23          6           0        2.345911   -0.620118    0.269268
     24          1           0        2.214167   -0.249119    1.291526
     25          1           0        2.681498   -1.665064    0.337840
     26          8           0        3.312995    0.172043   -0.432127
     27          1           0        4.121342    0.171135    0.105948
 ---------------------------------------------------------------------

 SCF Done:  E(RmPW1PW91) =  -594.190342174     A.U. after   13 cycles

      1  C    Isotropic =   168.1181   Anisotropy =    20.9042

      2  C    Isotropic =   127.6705   Anisotropy =    53.4008

      3  N    Isotropic =   191.9311   Anisotropy =    88.1983

      4  C    Isotropic =   145.5852   Anisotropy =    45.2827

      5  C    Isotropic =   166.8036   Anisotropy =    20.6412

      6  C    Isotropic =   131.1293   Anisotropy =    27.2436

      7  C    Isotropic =   117.1811   Anisotropy =    24.2691

      8  C    Isotropic =   119.7356   Anisotropy =    49.2132

      9  H    Isotropic =    29.9745   Anisotropy =    11.1880

     10  H    Isotropic =    29.5563   Anisotropy =     6.3305

     11  H    Isotropic =    27.8404   Anisotropy =     8.8849

     12  H    Isotropic =    28.5246   Anisotropy =     9.3436

     13  H    Isotropic =    28.0032   Anisotropy =     6.5907

     14  H    Isotropic =    29.7122   Anisotropy =    11.1412

     15  H    Isotropic =    29.6244   Anisotropy =    11.6850

     16  H    Isotropic =    28.3568   Anisotropy =     8.5925

     17  H    Isotropic =    27.5002   Anisotropy =     8.3477

     18  H    Isotropic =    27.2018   Anisotropy =     7.0517

     19  O    Isotropic =   305.5697   Anisotropy =    52.8156

     20  H    Isotropic =    30.0429   Anisotropy =    18.8276

     21  O    Isotropic =   312.4882   Anisotropy =    26.5874

     22  H    Isotropic =    28.7757   Anisotropy =    16.9642

     23  C    Isotropic =   133.7465   Anisotropy =    60.6688

     24  H    Isotropic =    27.1237   Anisotropy =     4.2093

     25  H    Isotropic =    27.4741   Anisotropy =     6.3942

     26  O    Isotropic =   314.0878   Anisotropy =    89.1603

     27  H    Isotropic =    30.2399   Anisotropy =    21.2497

 The electronic state is 1-A.
 Alpha  occ. eigenvalues --  -19.26787 -19.25458 -19.25080 -14.40773 -10.30643
 Alpha  occ. eigenvalues --  -10.30253 -10.29765 -10.28094 -10.27616 -10.26201
 Alpha  occ. eigenvalues --  -10.24418 -10.24382  -1.08004  -1.05602  -1.04727
 Alpha  occ. eigenvalues --   -0.95801  -0.82892  -0.78624  -0.75524  -0.71743
 Alpha  occ. eigenvalues --   -0.66318  -0.61424  -0.59883  -0.57935  -0.54549
 Alpha  occ. eigenvalues --   -0.52813  -0.52400  -0.51925  -0.49294  -0.46790
 Alpha  occ. eigenvalues --   -0.46375  -0.44635  -0.42808  -0.41347  -0.41140
 Alpha  occ. eigenvalues --   -0.38714  -0.38294  -0.37140  -0.35778  -0.35605
 Alpha  occ. eigenvalues --   -0.35021  -0.34322  -0.33669  -0.30685  -0.29692
 Alpha  occ. eigenvalues --   -0.29005  -0.22408
 Alpha virt. eigenvalues --    0.00052   0.01182   0.01846   0.02348   0.03201
 Alpha virt. eigenvalues --    0.04430   0.04987   0.05447   0.05522   0.06847
 Alpha virt. eigenvalues --    0.07975   0.08393   0.08809   0.09222   0.09747

 Mulliken atomic charges:
              1
     1  C   -0.412899
     2  C   -0.019311
     3  N   -0.177286
     4  C   -0.131401
     5  C   -0.522915
     6  C    0.064230
     7  C    0.073588
     8  C   -0.118772
     9  H    0.175549
    10  H    0.186798
    11  H    0.164364
    12  H    0.161609
    13  H    0.169775
    14  H    0.175566
    15  H    0.174299
    16  H    0.169251
    17  H    0.159297
    18  H    0.174858
    19  O   -0.592892
    20  H    0.395300
    21  O   -0.599717
    22  H    0.394634
    23  C   -0.186597
    24  H    0.160438
    25  H    0.163074
    26  O   -0.587361
    27  H    0.386520
 Sum of Mulliken atomic charges =   0.00000

 Dipole moment (field-independent basis, Debye):
    X=             -2.2349    Y=             -0.4582    Z=              0.2039  Tot=              2.2904
 Quadrupole moment (field-independent basis, Debye-Ang):
   XX=            -60.3592   YY=            -74.2627   ZZ=            -75.6544
   XY=             -4.9506   XZ=              9.4077   YZ=              5.8051

 Normal termination of Gaussian 09 at Fri May 17 13:15:49 2024.
