 Gaussian 09, Revision C.01,
 Gaussian 09:  AM64L-G09RevC.01 23-Sep-2011

 ------------------------------------------------
 # mpw1pw91/6-31+G** nmr scrf=(pcm,solvent=water)
 ------------------------------------------------

 99/9=1/99;
 -------
 comment
 -------
 Charge =  0 Multiplicity = 1

                         Standard orientation:
 ---------------------------------------------------------------------
 Center     Atomic      Atomic             Coordinates (Angstroms)
 Number     Number       Type             X           Y           Z
 ---------------------------------------------------------------------
      1          6           0        2.395876   -0.743146   -0.361495
      2          6           0        1.181433   -0.136862   -1.073840
      3          7           0        0.033930   -1.032336   -0.730153
      4          6           0        0.429185   -1.838981    0.466790
      5          6           0        1.798253   -1.321236    0.928342
      6          6           0       -1.132929   -0.131756   -0.603839
      7          6           0       -0.619629    1.181824    0.001763
      8          6           0        0.775384    1.319782   -0.662170
      9          1           0        2.809199   -1.547363   -0.981752
     10          1           0        3.189128   -0.012177   -0.189004
     11          1           0        1.333509   -0.136028   -2.158623
     12          1           0        0.509339   -2.893030    0.169434
     13          1           0       -0.319219   -1.792157    1.260160
     14          1           0        2.414348   -2.110726    1.370797
     15          1           0        1.675551   -0.528841    1.673474
     16          1           0       -1.451539    0.113046   -1.628672
     17          1           0       -1.272292    2.029377   -0.244856
     18          1           0        0.694319    1.942028   -1.558507
     19          8           0        1.722129    1.912639    0.235898
     20          1           0        1.578701    2.874256    0.212885
     21          8           0       -0.479115    1.084456    1.419482
     22          1           0        0.399761    1.474824    1.603764
     23          6           0       -2.351448   -0.741121    0.076725
     24          1           0       -2.538316   -1.744434   -0.332255
     25          1           0       -2.201176   -0.838036    1.157282
     26          8           0       -3.458679    0.130897   -0.187549
     27          1           0       -4.190251   -0.159360    0.380645
 ---------------------------------------------------------------------

 SCF Done:  E(RmPW1PW91) =  -594.188521839     A.U. after   13 cycles

      1  C    Isotropic =   168.0386   Anisotropy =    23.6451

      2  C    Isotropic =   127.2949   Anisotropy =    54.5110

      3  N    Isotropic =   190.8811   Anisotropy =    96.7325

      4  C    Isotropic =   146.2194   Anisotropy =    52.9928

      5  C    Isotropic =   167.7144   Anisotropy =    19.0541

      6  C    Isotropic =   128.7237   Anisotropy =    45.3563

      7  C    Isotropic =   123.8727   Anisotropy =    31.2218

      8  C    Isotropic =   119.3115   Anisotropy =    43.7232

      9  H    Isotropic =    29.8047   Anisotropy =    12.4716

     10  H    Isotropic =    29.4301   Anisotropy =     9.0601

     11  H    Isotropic =    27.9327   Anisotropy =     9.6014

     12  H    Isotropic =    28.9006   Anisotropy =    12.0055

     13  H    Isotropic =    28.6183   Anisotropy =     6.3382

     14  H    Isotropic =    30.0446   Anisotropy =    12.4337

     15  H    Isotropic =    29.8218   Anisotropy =     6.5164

     16  H    Isotropic =    28.6157   Anisotropy =     8.3041

     17  H    Isotropic =    27.6385   Anisotropy =     8.3253

     18  H    Isotropic =    27.2753   Anisotropy =     7.1557

     19  O    Isotropic =   309.6745   Anisotropy =    92.8653

     20  H    Isotropic =    30.0964   Anisotropy =    23.4015

     21  O    Isotropic =   318.9712   Anisotropy =    41.0919

     22  H    Isotropic =    28.3077   Anisotropy =    17.7293

     23  C    Isotropic =   134.6673   Anisotropy =    67.3902

     24  H    Isotropic =    27.5248   Anisotropy =     5.4447

     25  H    Isotropic =    27.1905   Anisotropy =     4.6287

     26  O    Isotropic =   316.0159   Anisotropy =    93.5105

     27  H    Isotropic =    30.2213   Anisotropy =    21.2708

 The electronic state is 1-A.
 Alpha  occ. eigenvalues --  -19.27178 -19.25622 -19.24668 -14.41014 -10.30689
 Alpha  occ. eigenvalues --  -10.29693 -10.29574 -10.27873 -10.27733 -10.26443
 Alpha  occ. eigenvalues --  -10.24311 -10.24010  -1.08279  -1.05754  -1.04367
 Alpha  occ. eigenvalues --   -0.95917  -0.82365  -0.78602  -0.75159  -0.71575
 Alpha  occ. eigenvalues --   -0.66648  -0.61782  -0.58643  -0.57330  -0.55447
 Alpha  occ. eigenvalues --   -0.54466  -0.52019  -0.50140  -0.48397  -0.47659
 Alpha  occ. eigenvalues --   -0.46630  -0.45252  -0.43161  -0.41102  -0.40281
 Alpha  occ. eigenvalues --   -0.39233  -0.38436  -0.36490  -0.35881  -0.34982
 Alpha  occ. eigenvalues --   -0.34722  -0.34462  -0.33243  -0.31078  -0.29698
 Alpha  occ. eigenvalues --   -0.28995  -0.22779
 Alpha virt. eigenvalues --   -0.00181   0.01292   0.01947   0.02022   0.03654
 Alpha virt. eigenvalues --    0.04250   0.04864   0.04983   0.05423   0.06861
 Alpha virt. eigenvalues --    0.07924   0.08507   0.08794   0.08911   0.10026

 Mulliken atomic charges:
              1
     1  C   -0.476704
     2  C   -0.014377
     3  N   -0.142815
     4  C   -0.218206
     5  C   -0.293759
     6  C   -0.189143
     7  C    0.100633
     8  C   -0.093796
     9  H    0.175173
    10  H    0.184980
    11  H    0.166390
    12  H    0.155119
    13  H    0.154106
    14  H    0.168700
    15  H    0.175345
    16  H    0.171990
    17  H    0.159175
    18  H    0.176869
    19  O   -0.639178
    20  H    0.414139
    21  O   -0.595458
    22  H    0.392798
    23  C   -0.075554
    24  H    0.166378
    25  H    0.164970
    26  O   -0.575444
    27  H    0.387670
 Sum of Mulliken atomic charges =   0.00000

 Dipole moment (field-independent basis, Debye):
    X=              0.9825    Y=              1.2265    Z=              0.0118  Tot=              1.5716
 Quadrupole moment (field-independent basis, Debye-Ang):
   XX=            -71.0399   YY=            -64.3514   ZZ=            -75.2545
   XY=              6.5746   XZ=             -4.3419   YZ=             -5.0790

 Normal termination of Gaussian 09 at Fri May 17 12:54:59 2024.
