 Gaussian 09, Revision C.01,
 Gaussian 09:  AM64L-G09RevC.01 23-Sep-2011

 ------------------------------------------------
 # mpw1pw91/6-31+G** nmr scrf=(pcm,solvent=water)
 ------------------------------------------------

 99/9=1/99;
 -------
 comment
 -------
 Charge =  0 Multiplicity = 1

                         Standard orientation:
 ---------------------------------------------------------------------
 Center     Atomic      Atomic             Coordinates (Angstroms)
 Number     Number       Type             X           Y           Z
 ---------------------------------------------------------------------
      1          6           0        2.350324   -0.403044    0.150602
      2          6           0        1.286070    0.031459   -0.870904
      3          7           0        0.157584   -0.953837   -0.733532
      4          6           0        0.502250   -1.887556    0.368434
      5          6           0        2.030240   -1.887651    0.374339
      6          6           0       -1.094837   -0.167946   -0.603435
      7          6           0       -0.707687    1.199568   -0.020800
      8          6           0        0.667834    1.453970   -0.680331
      9          1           0        3.368887   -0.222723   -0.205889
     10          1           0        2.226162    0.147393    1.090590
     11          1           0        1.699068   -0.038010   -1.884316
     12          1           0        0.074819   -2.878903    0.181777
     13          1           0        0.137483   -1.561228    1.354886
     14          1           0        2.413582   -2.493987   -0.455345
     15          1           0        2.443535   -2.285792    1.306302
     16          1           0       -1.455977    0.043441   -1.622874
     17          1           0       -1.432581    1.975197   -0.276062
     18          1           0        0.507351    1.905968   -1.664279
     19          8           0        1.459722    2.370639    0.065437
     20          1           0        1.167298    2.258347    0.990640
     21          8           0       -0.603318    1.256856    1.411987
     22          1           0       -0.100480    0.488634    1.730676
     23          6           0       -2.236838   -0.893230    0.107345
     24          1           0       -2.343092   -1.907508   -0.300717
     25          1           0       -2.049996   -0.978314    1.180284
     26          8           0       -3.463202   -0.165824   -0.012932
     27          1           0       -3.688899   -0.142435   -0.958402
 ---------------------------------------------------------------------

 SCF Done:  E(RmPW1PW91) =  -594.187838130     A.U. after   13 cycles

      1  C    Isotropic =   166.2377   Anisotropy =    20.6904

      2  C    Isotropic =   128.0019   Anisotropy =    53.9928

      3  N    Isotropic =   194.7947   Anisotropy =    89.2762

      4  C    Isotropic =   143.5809   Anisotropy =    44.5414

      5  C    Isotropic =   166.8731   Anisotropy =    19.7076

      6  C    Isotropic =   129.7878   Anisotropy =    40.7885

      7  C    Isotropic =   117.4473   Anisotropy =    34.6146

      8  C    Isotropic =   121.8082   Anisotropy =    49.7170

      9  H    Isotropic =    29.7858   Anisotropy =    11.0865

     10  H    Isotropic =    30.0351   Anisotropy =     6.1535

     11  H    Isotropic =    27.8468   Anisotropy =     9.0598

     12  H    Isotropic =    28.5830   Anisotropy =     9.4058

     13  H    Isotropic =    28.9002   Anisotropy =     7.2949

     14  H    Isotropic =    29.8017   Anisotropy =    11.2715

     15  H    Isotropic =    29.7178   Anisotropy =    11.8211

     16  H    Isotropic =    28.6576   Anisotropy =     8.0643

     17  H    Isotropic =    27.4885   Anisotropy =     7.4455

     18  H    Isotropic =    27.2989   Anisotropy =     7.2697

     19  O    Isotropic =   312.1465   Anisotropy =    31.1212

     20  H    Isotropic =    28.5058   Anisotropy =    14.8613

     21  O    Isotropic =   308.2043   Anisotropy =    93.9095

     22  H    Isotropic =    31.0701   Anisotropy =    15.8361

     23  C    Isotropic =   136.1249   Anisotropy =    69.5303

     24  H    Isotropic =    27.4690   Anisotropy =     5.6750

     25  H    Isotropic =    27.4384   Anisotropy =     4.1133

     26  O    Isotropic =   306.8726   Anisotropy =    57.4753

     27  H    Isotropic =    30.5849   Anisotropy =    17.5804

 The electronic state is 1-A.
 Alpha  occ. eigenvalues --  -19.27334 -19.26043 -19.25539 -14.41646 -10.30774
 Alpha  occ. eigenvalues --  -10.30376 -10.30261 -10.28674 -10.27749 -10.27573
 Alpha  occ. eigenvalues --  -10.24917 -10.24885  -1.08466  -1.06161  -1.05079
 Alpha  occ. eigenvalues --   -0.96587  -0.83287  -0.79025  -0.75539  -0.72223
 Alpha  occ. eigenvalues --   -0.67486  -0.62944  -0.60388  -0.57857  -0.56358
 Alpha  occ. eigenvalues --   -0.53390  -0.51889  -0.51101  -0.49201  -0.48572
 Alpha  occ. eigenvalues --   -0.45632  -0.44375  -0.43921  -0.42791  -0.41469
 Alpha  occ. eigenvalues --   -0.40354  -0.38246  -0.37062  -0.36522  -0.35904
 Alpha  occ. eigenvalues --   -0.35521  -0.35348  -0.34130  -0.31830  -0.30014
 Alpha  occ. eigenvalues --   -0.29495  -0.22953
 Alpha virt. eigenvalues --   -0.00413   0.01159   0.01889   0.02362   0.03792
 Alpha virt. eigenvalues --    0.04053   0.04624   0.05217   0.05418   0.06728
 Alpha virt. eigenvalues --    0.07916   0.08454   0.08721   0.09044   0.09166

 Mulliken atomic charges:
              1
     1  C   -0.292785
     2  C   -0.105493
     3  N   -0.222924
     4  C   -0.108607
     5  C   -0.451122
     6  C   -0.245059
     7  C    0.099052
     8  C   -0.180840
     9  H    0.180505
    10  H    0.163621
    11  H    0.167315
    12  H    0.174037
    13  H    0.143409
    14  H    0.182400
    15  H    0.180994
    16  H    0.172403
    17  H    0.179928
    18  H    0.179159
    19  O   -0.517610
    20  H    0.388562
    21  O   -0.599974
    22  H    0.402068
    23  C   -0.074800
    24  H    0.174146
    25  H    0.172159
    26  O   -0.536458
    27  H    0.375913
 Sum of Mulliken atomic charges =   0.00000

 Dipole moment (field-independent basis, Debye):
    X=              0.7714    Y=             -3.4083    Z=             -0.9465  Tot=              3.6204
 Quadrupole moment (field-independent basis, Debye-Ang):
   XX=            -79.5364   YY=            -79.8566   ZZ=            -69.3946
   XY=             -3.1795   XZ=             10.3034   YZ=             -4.7305

 Normal termination of Gaussian 09 at Fri May 17 12:57:54 2024.
