 Gaussian 09, Revision C.01,
 Gaussian 09:  AM64L-G09RevC.01 23-Sep-2011

 ------------------------------------------------
 # mpw1pw91/6-31+G** nmr scrf=(pcm,solvent=water)
 ------------------------------------------------

 99/9=1/99;
 -------
 comment
 -------
 Charge =  0 Multiplicity = 1

                         Standard orientation:
 ---------------------------------------------------------------------
 Center     Atomic      Atomic             Coordinates (Angstroms)
 Number     Number       Type             X           Y           Z
 ---------------------------------------------------------------------
      1          6           0       -2.476114   -0.659802    0.271220
      2          6           0       -1.244877   -0.733462   -0.644085
      3          7           0       -0.744315    0.672357   -0.779048
      4          6           0       -1.536281    1.536012    0.118648
      5          6           0       -2.887077    0.820751    0.196373
      6          6           0        0.733159    0.697547   -0.704245
      7          6           0        1.133484   -0.809431   -0.807134
      8          6           0       -0.045625   -1.570312   -0.182211
      9          1           0       -3.269581   -1.345477   -0.040254
     10          1           0       -2.194138   -0.911000    1.299368
     11          1           0       -1.533667   -1.109119   -1.636388
     12          1           0       -1.618999    2.553252   -0.282888
     13          1           0       -1.112379    1.617791    1.130314
     14          1           0       -3.474138    1.012995   -0.709574
     15          1           0       -3.479557    1.144988    1.057639
     16          1           0        1.143859    1.229334   -1.574335
     17          1           0        1.215968   -1.086205   -1.862025
     18          1           0       -0.099687   -2.606294   -0.531665
     19          8           0        0.176221   -1.552293    1.236967
     20          1           0       -0.328189   -2.283609    1.628312
     21          8           0        2.378843   -1.148880   -0.190331
     22          1           0        2.144588   -1.386578    0.729176
     23          6           0        1.345975    1.398810    0.522522
     24          1           0        0.962908    2.420357    0.602227
     25          1           0        1.093606    0.872141    1.452266
     26          8           0        2.765153    1.513223    0.371944
     27          1           0        3.062020    0.593847    0.215989
 ---------------------------------------------------------------------

 SCF Done:  E(RmPW1PW91) =  -594.193740231     A.U. after   13 cycles

      1  C    Isotropic =   169.9652   Anisotropy =    18.5227

      2  C    Isotropic =   128.1448   Anisotropy =    47.9193

      3  N    Isotropic =   201.4932   Anisotropy =    88.0040

      4  C    Isotropic =   147.3194   Anisotropy =    39.7729

      5  C    Isotropic =   165.2078   Anisotropy =    23.5435

      6  C    Isotropic =   133.4464   Anisotropy =    47.4324

      7  C    Isotropic =   115.3821   Anisotropy =    57.4409

      8  C    Isotropic =   121.2868   Anisotropy =    31.3448

      9  H    Isotropic =    29.8931   Anisotropy =    11.6658

     10  H    Isotropic =    29.7158   Anisotropy =     6.9024

     11  H    Isotropic =    28.0530   Anisotropy =     9.2183

     12  H    Isotropic =    28.7872   Anisotropy =    10.3626

     13  H    Isotropic =    28.7943   Anisotropy =     7.4028

     14  H    Isotropic =    29.6463   Anisotropy =    11.1512

     15  H    Isotropic =    29.6189   Anisotropy =    11.5224

     16  H    Isotropic =    28.0877   Anisotropy =     7.1371

     17  H    Isotropic =    26.8788   Anisotropy =     6.1489

     18  H    Isotropic =    27.6829   Anisotropy =     8.7853

     19  O    Isotropic =   305.2172   Anisotropy =    46.1636

     20  H    Isotropic =    29.6178   Anisotropy =    21.3511

     21  O    Isotropic =   309.1727   Anisotropy =    28.7995

     22  H    Isotropic =    27.7081   Anisotropy =    15.0157

     23  C    Isotropic =   131.5295   Anisotropy =    60.8011

     24  H    Isotropic =    27.7779   Anisotropy =     5.4605

     25  H    Isotropic =    27.3608   Anisotropy =     4.3601

     26  O    Isotropic =   312.3023   Anisotropy =    33.4630

     27  H    Isotropic =    27.5731   Anisotropy =    21.1149

 The electronic state is 1-A.
 Alpha  occ. eigenvalues --  -19.26955 -19.26826 -19.24380 -14.40989 -10.31048
 Alpha  occ. eigenvalues --  -10.30898 -10.29067 -10.27996 -10.27846 -10.26879
 Alpha  occ. eigenvalues --  -10.24667 -10.24629  -1.08835  -1.05991  -1.04324
 Alpha  occ. eigenvalues --   -0.96151  -0.82776  -0.79542  -0.74521  -0.71518
 Alpha  occ. eigenvalues --   -0.67659  -0.61651  -0.60026  -0.58423  -0.56059
 Alpha  occ. eigenvalues --   -0.53210  -0.52035  -0.50979  -0.49537  -0.46576
 Alpha  occ. eigenvalues --   -0.46103  -0.44588  -0.42904  -0.41841  -0.41044
 Alpha  occ. eigenvalues --   -0.39545  -0.39292  -0.37482  -0.36673  -0.36241
 Alpha  occ. eigenvalues --   -0.35193  -0.34738  -0.33507  -0.31347  -0.29669
 Alpha  occ. eigenvalues --   -0.29313  -0.22050
 Alpha virt. eigenvalues --   -0.00095   0.01639   0.02001   0.02173   0.04031
 Alpha virt. eigenvalues --    0.04492   0.04614   0.05029   0.05591   0.07475
 Alpha virt. eigenvalues --    0.07737   0.08367   0.08888   0.09186   0.09740

 Mulliken atomic charges:
              1
     1  C   -0.484315
     2  C    0.056235
     3  N   -0.111625
     4  C   -0.198722
     5  C   -0.389891
     6  C   -0.194819
     7  C   -0.098472
     8  C    0.125913
     9  H    0.176606
    10  H    0.172876
    11  H    0.165946
    12  H    0.164536
    13  H    0.154147
    14  H    0.178591
    15  H    0.176027
    16  H    0.169289
    17  H    0.192227
    18  H    0.179128
    19  O   -0.672916
    20  H    0.414798
    21  O   -0.606575
    22  H    0.413392
    23  C   -0.165807
    24  H    0.168571
    25  H    0.177114
    26  O   -0.573100
    27  H    0.410848
 Sum of Mulliken atomic charges =   0.00000

 Dipole moment (field-independent basis, Debye):
    X=             -5.1580    Y=             -4.3081    Z=              1.1644  Tot=              6.8206
 Quadrupole moment (field-independent basis, Debye-Ang):
   XX=            -83.3262   YY=            -69.3461   ZZ=            -72.1537
   XY=             -3.5087   XZ=             -2.0004   YZ=             -1.8433

 Normal termination of Gaussian 09 at Fri May 17 12:59:38 2024.
