 Gaussian 09, Revision C.01,
 Gaussian 09:  AM64L-G09RevC.01 23-Sep-2011

 ------------------------------------------------
 # mpw1pw91/6-31+G** nmr scrf=(pcm,solvent=water)
 ------------------------------------------------

 99/9=1/99;
 -------
 comment
 -------
 Charge =  0 Multiplicity = 1

                         Standard orientation:
 ---------------------------------------------------------------------
 Center     Atomic      Atomic             Coordinates (Angstroms)
 Number     Number       Type             X           Y           Z
 ---------------------------------------------------------------------
      1          6           0       -2.161339   -1.082319    0.279190
      2          6           0       -0.904938   -1.113804   -0.614337
      3          7           0       -0.718915    0.274800   -1.143467
      4          6           0       -1.797141    1.127532   -0.602034
      5          6           0       -2.345514    0.401619    0.635867
      6          6           0        0.702221    0.680370   -1.029847
      7          6           0        1.432900   -0.678123   -0.779466
      8          6           0        0.428705   -1.505622    0.041120
      9          1           0       -3.025101   -1.446113   -0.288236
     10          1           0       -2.048681   -1.721295    1.159998
     11          1           0       -1.062506   -1.812284   -1.447692
     12          1           0       -2.594253    1.233055   -1.352683
     13          1           0       -1.439344    2.136060   -0.383351
     14          1           0       -3.389371    0.659284    0.844684
     15          1           0       -1.749285    0.659658    1.515936
     16          1           0        1.048708    1.083766   -1.993776
     17          1           0        1.583464   -1.165909   -1.747940
     18          1           0        0.617479   -2.578869   -0.046679
     19          8           0        0.551792   -1.209946    1.434777
     20          1           0        0.490723   -0.228037    1.537405
     21          8           0        2.712139   -0.581189   -0.169416
     22          1           0        2.543113   -0.603068    0.791379
     23          6           0        1.072050    1.787666   -0.041024
     24          1           0        2.158548    1.910969   -0.080606
     25          1           0        0.618411    2.734909   -0.356108
     26          8           0        0.658322    1.500182    1.309998
     27          1           0        1.340810    1.837981    1.912254
 ---------------------------------------------------------------------

 SCF Done:  E(RmPW1PW91) =  -594.194004552     A.U. after   13 cycles

      1  C    Isotropic =   168.4041   Anisotropy =    23.9026

      2  C    Isotropic =   128.2717   Anisotropy =    50.2847

      3  N    Isotropic =   207.6104   Anisotropy =    80.1655

      4  C    Isotropic =   146.1616   Anisotropy =    49.5899

      5  C    Isotropic =   167.0146   Anisotropy =    22.8004

      6  C    Isotropic =   128.4481   Anisotropy =    39.0425

      7  C    Isotropic =   118.7566   Anisotropy =    53.7403

      8  C    Isotropic =   121.9859   Anisotropy =    23.4848

      9  H    Isotropic =    29.8049   Anisotropy =    12.8011

     10  H    Isotropic =    29.4249   Anisotropy =     9.0552

     11  H    Isotropic =    28.0128   Anisotropy =     9.7672

     12  H    Isotropic =    28.7685   Anisotropy =    12.9884

     13  H    Isotropic =    28.3054   Anisotropy =     7.8881

     14  H    Isotropic =    30.0755   Anisotropy =    12.6688

     15  H    Isotropic =    29.7982   Anisotropy =     7.0011

     16  H    Isotropic =    28.1987   Anisotropy =     9.0200

     17  H    Isotropic =    27.1588   Anisotropy =     7.1889

     18  H    Isotropic =    27.9777   Anisotropy =     8.8581

     19  O    Isotropic =   312.4945   Anisotropy =    89.0659

     20  H    Isotropic =    26.5987   Anisotropy =    26.5404

     21  O    Isotropic =   307.8363   Anisotropy =    23.7764

     22  H    Isotropic =    28.9432   Anisotropy =    13.4144

     23  C    Isotropic =   136.8493   Anisotropy =    69.2111

     24  H    Isotropic =    27.7859   Anisotropy =     7.6511

     25  H    Isotropic =    27.4226   Anisotropy =     8.2014

     26  O    Isotropic =   307.4908   Anisotropy =    68.7680

     27  H    Isotropic =    29.5843   Anisotropy =    21.6053

 The electronic state is 1-A.
 Alpha  occ. eigenvalues --  -19.27498 -19.25735 -19.24714 -14.40895 -10.30404
 Alpha  occ. eigenvalues --  -10.30287 -10.29884 -10.28457 -10.27470 -10.26694
 Alpha  occ. eigenvalues --  -10.24301 -10.23922  -1.08161  -1.06630  -1.04120
 Alpha  occ. eigenvalues --   -0.95727  -0.82419  -0.78897  -0.75521  -0.71349
 Alpha  occ. eigenvalues --   -0.67817  -0.61409  -0.59792  -0.57549  -0.56023
 Alpha  occ. eigenvalues --   -0.53674  -0.52059  -0.50580  -0.48661  -0.47185
 Alpha  occ. eigenvalues --   -0.46961  -0.45079  -0.42785  -0.41129  -0.41020
 Alpha  occ. eigenvalues --   -0.39555  -0.39175  -0.37209  -0.36252  -0.35365
 Alpha  occ. eigenvalues --   -0.34895  -0.34156  -0.33612  -0.31423  -0.29986
 Alpha  occ. eigenvalues --   -0.28894  -0.22004
 Alpha virt. eigenvalues --   -0.00152   0.01388   0.02178   0.02279   0.04118
 Alpha virt. eigenvalues --    0.04333   0.04454   0.04780   0.05381   0.07174
 Alpha virt. eigenvalues --    0.07629   0.08079   0.08737   0.08934   0.10184

 Mulliken atomic charges:
              1
     1  C   -0.501053
     2  C   -0.015904
     3  N   -0.174821
     4  C   -0.215170
     5  C   -0.302755
     6  C    0.241813
     7  C   -0.486916
     8  C    0.199668
     9  H    0.173769
    10  H    0.181073
    11  H    0.161582
    12  H    0.156743
    13  H    0.149842
    14  H    0.166794
    15  H    0.181943
    16  H    0.167515
    17  H    0.185150
    18  H    0.166440
    19  O   -0.649111
    20  H    0.440024
    21  O   -0.502394
    22  H    0.379242
    23  C   -0.190961
    24  H    0.186046
    25  H    0.167073
    26  O   -0.696712
    27  H    0.431080
 Sum of Mulliken atomic charges =   0.00000

 Dipole moment (field-independent basis, Debye):
    X=             -0.3531    Y=              2.9586    Z=              0.3554  Tot=              3.0008
 Quadrupole moment (field-independent basis, Debye-Ang):
   XX=            -76.0898   YY=            -68.2353   ZZ=            -74.5868
   XY=              6.9425   XZ=              3.4932   YZ=              5.9701

 Normal termination of Gaussian 09 at Fri May 17 13:13:06 2024.
