 Gaussian 09, Revision C.01,
 Gaussian 09:  AM64L-G09RevC.01 23-Sep-2011

 ------------------------------------------------
 # mpw1pw91/6-31+G** nmr scrf=(pcm,solvent=water)
 ------------------------------------------------

 99/9=1/99;
 -------
 comment
 -------
 Charge =  0 Multiplicity = 1

                         Standard orientation:
 ---------------------------------------------------------------------
 Center     Atomic      Atomic             Coordinates (Angstroms)
 Number     Number       Type             X           Y           Z
 ---------------------------------------------------------------------
      1          6           0       -2.501005   -0.630250    0.101412
      2          6           0       -1.118066   -0.684700   -0.539945
      3          7           0       -0.447318    0.493035    0.035413
      4          6           0       -1.406970    1.582163   -0.151299
      5          6           0       -2.770800    0.906131    0.170586
      6          6           0        0.891684    0.513552   -0.566395
      7          6           0        1.225034   -1.020706   -0.737575
      8          6           0       -0.075123   -1.761619   -0.285477
      9          1           0       -3.255680   -1.166403   -0.480387
     10          1           0       -2.468818   -1.065396    1.105246
     11          1           0       -1.223363   -0.578741   -1.638710
     12          1           0       -1.388318    1.949292   -1.193018
     13          1           0       -1.197362    2.432222    0.504692
     14          1           0       -3.530465    1.215380   -0.553076
     15          1           0       -3.130511    1.194170    1.162699
     16          1           0        0.850943    0.976869   -1.569093
     17          1           0        1.421887   -1.224085   -1.793412
     18          1           0       -0.235622   -2.692998   -0.830824
     19          8           0        0.025077   -2.114406    1.100611
     20          1           0       -0.079269   -1.276462    1.590791
     21          8           0        2.356407   -1.486295   -0.012878
     22          1           0        1.993212   -1.785295    0.845014
     23          6           0        1.927057    1.271593    0.258104
     24          1           0        1.977206    0.861446    1.274228
     25          1           0        2.912047    1.151668   -0.202681
     26          8           0        1.680090    2.684173    0.299670
     27          1           0        0.961876    2.832323    0.934946
 ---------------------------------------------------------------------

 SCF Done:  E(RmPW1PW91) =  -594.194295121     A.U. after   13 cycles

      1  C    Isotropic =   173.5466   Anisotropy =    18.2472

      2  C    Isotropic =   125.1529   Anisotropy =    50.3618

      3  N    Isotropic =   175.9270   Anisotropy =    94.1539

      4  C    Isotropic =   144.4487   Anisotropy =    53.0459

      5  C    Isotropic =   167.5395   Anisotropy =    29.9347

      6  C    Isotropic =   129.2173   Anisotropy =    23.6685

      7  C    Isotropic =   116.6184   Anisotropy =    44.5504

      8  C    Isotropic =   124.5292   Anisotropy =    36.1455

      9  H    Isotropic =    30.0171   Anisotropy =    11.7198

     10  H    Isotropic =    29.9594   Anisotropy =     8.6061

     11  H    Isotropic =    29.0725   Anisotropy =     5.7865

     12  H    Isotropic =    29.4359   Anisotropy =     8.5142

     13  H    Isotropic =    28.5916   Anisotropy =     8.7139

     14  H    Isotropic =    29.5898   Anisotropy =    11.2374

     15  H    Isotropic =    29.4029   Anisotropy =    10.9754

     16  H    Isotropic =    29.1282   Anisotropy =     6.4519

     17  H    Isotropic =    27.1843   Anisotropy =     6.3262

     18  H    Isotropic =    27.8071   Anisotropy =     8.8371

     19  O    Isotropic =   313.2580   Anisotropy =    80.5108

     20  H    Isotropic =    29.7638   Anisotropy =    14.6702

     21  O    Isotropic =   309.0957   Anisotropy =    34.5658

     22  H    Isotropic =    28.3715   Anisotropy =    14.9417

     23  C    Isotropic =   127.2223   Anisotropy =    52.2842

     24  H    Isotropic =    27.9068   Anisotropy =     5.7986

     25  H    Isotropic =    27.7395   Anisotropy =     5.7094

     26  O    Isotropic =   311.5939   Anisotropy =    42.9941

     27  H    Isotropic =    30.4059   Anisotropy =    15.4179

 The electronic state is 1-A.
 Alpha  occ. eigenvalues --  -19.26771 -19.25632 -19.25407 -14.42054 -10.30933
 Alpha  occ. eigenvalues --  -10.30855 -10.29478 -10.28182 -10.28167 -10.27537
 Alpha  occ. eigenvalues --  -10.24976 -10.24947  -1.08437  -1.05684  -1.04877
 Alpha  occ. eigenvalues --   -0.97873  -0.82876  -0.79443  -0.75137  -0.71910
 Alpha  occ. eigenvalues --   -0.66974  -0.62054  -0.60653  -0.58890  -0.55107
 Alpha  occ. eigenvalues --   -0.53543  -0.51715  -0.51354  -0.49669  -0.47208
 Alpha  occ. eigenvalues --   -0.45466  -0.45041  -0.43088  -0.42691  -0.41329
 Alpha  occ. eigenvalues --   -0.39291  -0.39252  -0.38451  -0.36230  -0.35637
 Alpha  occ. eigenvalues --   -0.34789  -0.34678  -0.33479  -0.31408  -0.31056
 Alpha  occ. eigenvalues --   -0.28166  -0.24481
 Alpha virt. eigenvalues --    0.00552   0.01306   0.01759   0.02736   0.03797
 Alpha virt. eigenvalues --    0.04407   0.04777   0.04889   0.05334   0.07500
 Alpha virt. eigenvalues --    0.07572   0.08140   0.08655   0.08770   0.09823

 Mulliken atomic charges:
              1
     1  C   -0.526223
     2  C    0.249343
     3  N   -0.221193
     4  C   -0.335611
     5  C   -0.272151
     6  C   -0.114078
     7  C   -0.016444
     8  C   -0.108847
     9  H    0.178294
    10  H    0.177241
    11  H    0.170537
    12  H    0.159863
    13  H    0.154351
    14  H    0.179482
    15  H    0.180376
    16  H    0.163829
    17  H    0.180403
    18  H    0.178671
    19  O   -0.597236
    20  H    0.406938
    21  O   -0.538725
    22  H    0.394944
    23  C   -0.216412
    24  H    0.167551
    25  H    0.174985
    26  O   -0.542439
    27  H    0.372550
 Sum of Mulliken atomic charges =   0.00000

 Dipole moment (field-independent basis, Debye):
    X=             -4.4184    Y=              0.5341    Z=             -0.2104  Tot=              4.4555
 Quadrupole moment (field-independent basis, Debye-Ang):
   XX=            -79.8663   YY=            -84.0681   ZZ=            -67.8876
   XY=             -3.1468   XZ=              2.1313   YZ=              5.6616

 Normal termination of Gaussian 09 at Fri May 17 13:26:51 2024.
