 Gaussian 09, Revision C.01,
 Gaussian 09:  EM64L-G09RevC.01 23-Sep-2011

 -----------------------------------------------------------------
 # mPW1PW91/6-31g** scrf=(pcm,solvent=chloroform,smd,dovacuum) nmr
 -----------------------------------------------------------------

 99/9=1/99;
 -------
 comment
 -------
 Charge =  0 Multiplicity = 1

                         Standard orientation:
 ---------------------------------------------------------------------
 Center     Atomic      Atomic             Coordinates (Angstroms)
 Number     Number       Type             X           Y           Z
 ---------------------------------------------------------------------
      1          6           0       -2.668848   -0.267330   -0.172527
      2          1           0       -2.996885   -0.837123    0.704945
      3          6           0       -1.377486    0.514359    0.138387
      4          1           0       -1.099994    1.061677   -0.768773
      5          6           0       -0.260344   -0.439779    0.546998
      6          8           0       -0.497163   -1.462708    1.190912
      7          8           0       -3.706014    0.666840   -0.492605
      8          1           0       -4.530481    0.158504   -0.588976
      9          6           0       -1.595866    1.520566    1.271750
     10          1           0       -0.665297    2.034920    1.533471
     11          1           0       -1.956756    1.021219    2.178014
     12          1           0       -2.327414    2.284292    0.989318
     13          6           0        1.156758   -0.134315    0.173009
     14          6           0        3.844306    0.317987   -0.493441
     15          6           0        1.559818    1.105291   -0.338364
     16          6           0        2.116973   -1.141038    0.354057
     17          6           0        3.454146   -0.916116    0.020621
     18          6           0        2.899865    1.327454   -0.671053
     19          1           0        0.860552    1.923576   -0.478463
     20          1           0        1.827371   -2.110202    0.757016
     21          1           0        4.188866   -1.704467    0.164757
     22          1           0        3.208033    2.292793   -1.066259
     23          1           0        4.885625    0.494656   -0.751818
     24          6           0       -2.513634   -1.207164   -1.365909
     25          1           0       -3.467746   -1.695698   -1.592659
     26          1           0       -1.767965   -1.985635   -1.182928
     27          1           0       -2.226621   -0.651050   -2.265276
 ---------------------------------------------------------------------

 SCF Done:  E(RmPW1PW91) =  -577.946848043     A.U. after   12 cycles

      1  C    Isotropic =   125.7737   Anisotropy =    43.5002

      2  H    Isotropic =    27.2923   Anisotropy =     5.6926

      3  C    Isotropic =   146.9795   Anisotropy =    30.4945

      4  H    Isotropic =    28.1112   Anisotropy =     6.0183

      5  C    Isotropic =    -6.5290   Anisotropy =   171.3824

      6  O    Isotropic =  -229.4012   Anisotropy =   937.8712

      7  O    Isotropic =   283.1025   Anisotropy =    65.3124

      8  H    Isotropic =    30.6129   Anisotropy =    18.7257

      9  C    Isotropic =   177.9578   Anisotropy =    24.4910

     10  H    Isotropic =    30.3397   Anisotropy =     8.0023

     11  H    Isotropic =    30.6065   Anisotropy =     9.0605

     12  H    Isotropic =    29.7232   Anisotropy =     9.0889

     13  C    Isotropic =    64.1617   Anisotropy =   159.6491

     14  C    Isotropic =    66.0436   Anisotropy =   182.2730

     15  C    Isotropic =    69.8797   Anisotropy =   176.1314

     16  C    Isotropic =    69.3078   Anisotropy =   184.3260

     17  C    Isotropic =    69.6529   Anisotropy =   174.3073

     18  C    Isotropic =    70.0661   Anisotropy =   173.3907

     19  H    Isotropic =    23.2180   Anisotropy =     9.2776

     20  H    Isotropic =    23.1211   Anisotropy =     7.2880

     21  H    Isotropic =    23.7096   Anisotropy =     4.8444

     22  H    Isotropic =    23.7464   Anisotropy =     5.2439

     23  H    Isotropic =    23.6889   Anisotropy =     4.5071

     24  C    Isotropic =   171.7571   Anisotropy =    35.8073

     25  H    Isotropic =    30.7080   Anisotropy =     9.7920

     26  H    Isotropic =    30.5635   Anisotropy =     7.4999

     27  H    Isotropic =    30.8198   Anisotropy =     6.4981

 The electronic state is 1-A.
 Alpha  occ. eigenvalues --  -19.22885 -19.22498 -10.33805 -10.28990 -10.26370
 Alpha  occ. eigenvalues --  -10.26161 -10.25877 -10.25787 -10.25606 -10.25505
 Alpha  occ. eigenvalues --  -10.25367 -10.23355 -10.22388  -1.06329  -1.03443
 Alpha  occ. eigenvalues --   -0.88636  -0.82256  -0.78285  -0.77175  -0.74434
 Alpha  occ. eigenvalues --   -0.67228  -0.64739  -0.62759  -0.60245  -0.55447
 Alpha  occ. eigenvalues --   -0.53945  -0.50807  -0.47509  -0.47014  -0.46186
 Alpha  occ. eigenvalues --   -0.45327  -0.44247  -0.43416  -0.42956  -0.41742
 Alpha  occ. eigenvalues --   -0.40471  -0.38372  -0.37720  -0.37007  -0.36821
 Alpha  occ. eigenvalues --   -0.35590  -0.35330  -0.35081  -0.31935  -0.27383
 Alpha  occ. eigenvalues --   -0.26973  -0.26733  -0.25824
 Alpha virt. eigenvalues --   -0.05179  -0.00337   0.04574   0.09981   0.11144
 Alpha virt. eigenvalues --    0.13494   0.14246   0.16066   0.16734   0.17508
 Alpha virt. eigenvalues --    0.17834   0.18351   0.19127   0.19826   0.19989

 Mulliken atomic charges:
              1
     1  C    0.151516
     2  H    0.130236
     3  C   -0.206902
     4  H    0.156006
     5  C    0.435623
     6  O   -0.517812
     7  O   -0.602415
     8  H    0.345378
     9  C   -0.403016
    10  H    0.144054
    11  H    0.148709
    12  H    0.159520
    13  C   -0.007553
    14  C   -0.130957
    15  C   -0.154708
    16  C   -0.136704
    17  C   -0.155385
    18  C   -0.162292
    19  H    0.167345
    20  H    0.164143
    21  H    0.160176
    22  H    0.159860
    23  H    0.160768
    24  C   -0.425126
    25  H    0.136194
    26  H    0.142477
    27  H    0.140864
 Sum of Mulliken atomic charges =   0.00000

 Dipole moment (field-independent basis, Debye):
    X=              1.1238    Y=              1.1380    Z=             -1.6499  Tot=              2.2978
 Quadrupole moment (field-independent basis, Debye-Ang):
   XX=            -59.9461   YY=            -75.8713   ZZ=            -80.3747
   XY=              4.3798   XZ=             -0.6299   YZ=              1.7720

 Normal termination of Gaussian 09 at Tue Dec 21 08:59:22 2021.
