 Gaussian 09, Revision C.01,
 Gaussian 09:  EM64L-G09RevC.01 23-Sep-2011

 -----------------------------------------------------------------
 # mPW1PW91/6-31g** scrf=(pcm,solvent=chloroform,smd,dovacuum) nmr
 -----------------------------------------------------------------

 99/9=1/99;
 -------
 comment
 -------
 Charge =  0 Multiplicity = 1

                         Standard orientation:
 ---------------------------------------------------------------------
 Center     Atomic      Atomic             Coordinates (Angstroms)
 Number     Number       Type             X           Y           Z
 ---------------------------------------------------------------------
      1          6           0       -2.508989    0.340800   -0.401052
      2          1           0       -2.875069   -0.422638   -1.098284
      3          6           0       -1.434566   -0.233661    0.537586
      4          1           0       -1.111590    0.541430    1.237573
      5          6           0       -0.270114   -0.778257   -0.279870
      6          8           0       -0.438571   -1.681112   -1.100447
      7          8           0       -3.622597    0.803914    0.368080
      8          1           0       -4.171180    0.028440    0.580224
      9          6           0       -1.980935   -1.379053    1.397868
     10          1           0       -1.179605   -1.836993    1.988605
     11          1           0       -2.426740   -2.166403    0.779949
     12          1           0       -2.744412   -1.020689    2.095706
     13          6           0        1.107610   -0.243177   -0.068915
     14          6           0        3.739988    0.655614    0.269655
     15          6           0        2.190045   -1.062758   -0.419450
     16          6           0        1.354969    1.038080    0.436763
     17          6           0        2.669581    1.482400    0.607650
     18          6           0        3.501283   -0.615898   -0.246875
     19          1           0        2.015662   -2.056535   -0.828626
     20          1           0        0.550228    1.722263    0.686355
     21          1           0        2.859121    2.479462    0.998866
     22          1           0        4.334100   -1.259638   -0.519136
     23          1           0        4.761041    1.005571    0.401730
     24          6           0       -2.008796    1.536621   -1.205560
     25          1           0       -2.822650    1.954525   -1.808666
     26          1           0       -1.191209    1.264150   -1.878838
     27          1           0       -1.668803    2.340370   -0.543312
 ---------------------------------------------------------------------

 SCF Done:  E(RmPW1PW91) =  -577.946528171     A.U. after   12 cycles

      1  C    Isotropic =   124.6226   Anisotropy =    43.6934

      2  H    Isotropic =    27.5612   Anisotropy =     5.4675

      3  C    Isotropic =   145.5366   Anisotropy =    35.2431

      4  H    Isotropic =    28.0297   Anisotropy =     8.1269

      5  C    Isotropic =    -9.2335   Anisotropy =   176.1458

      6  O    Isotropic =  -232.6818   Anisotropy =   943.0007

      7  O    Isotropic =   291.2722   Anisotropy =    34.7103

      8  H    Isotropic =    29.5449   Anisotropy =    17.9972

      9  C    Isotropic =   178.7164   Anisotropy =    24.4004

     10  H    Isotropic =    30.6527   Anisotropy =     8.8003

     11  H    Isotropic =    30.5345   Anisotropy =     9.0129

     12  H    Isotropic =    30.2879   Anisotropy =     8.9846

     13  C    Isotropic =    61.8505   Anisotropy =   161.2537

     14  C    Isotropic =    66.3477   Anisotropy =   181.6769

     15  C    Isotropic =    69.2601   Anisotropy =   180.3452

     16  C    Isotropic =    70.0459   Anisotropy =   176.3757

     17  C    Isotropic =    70.2117   Anisotropy =   173.6530

     18  C    Isotropic =    69.8305   Anisotropy =   174.3585

     19  H    Isotropic =    23.3231   Anisotropy =     7.1520

     20  H    Isotropic =    23.2375   Anisotropy =     8.9120

     21  H    Isotropic =    23.7508   Anisotropy =     5.3892

     22  H    Isotropic =    23.7401   Anisotropy =     4.7265

     23  H    Isotropic =    23.6791   Anisotropy =     4.5146

     24  C    Isotropic =   174.2172   Anisotropy =    29.0027

     25  H    Isotropic =    30.3409   Anisotropy =    10.5284

     26  H    Isotropic =    30.7145   Anisotropy =     5.9567

     27  H    Isotropic =    30.3943   Anisotropy =     7.1139

 The electronic state is 1-A.
 Alpha  occ. eigenvalues --  -19.22900 -19.22744 -10.33550 -10.29332 -10.26276
 Alpha  occ. eigenvalues --  -10.26096 -10.25831 -10.25780 -10.25581 -10.25492
 Alpha  occ. eigenvalues --  -10.24996 -10.23433 -10.22716  -1.06196  -1.03790
 Alpha  occ. eigenvalues --   -0.88619  -0.82183  -0.78256  -0.77173  -0.75089
 Alpha  occ. eigenvalues --   -0.67402  -0.64341  -0.62653  -0.60015  -0.55506
 Alpha  occ. eigenvalues --   -0.53971  -0.51813  -0.48563  -0.47189  -0.46311
 Alpha  occ. eigenvalues --   -0.45463  -0.43923  -0.43411  -0.42779  -0.40429
 Alpha  occ. eigenvalues --   -0.39384  -0.38998  -0.38440  -0.36691  -0.36620
 Alpha  occ. eigenvalues --   -0.35745  -0.35578  -0.35079  -0.32382  -0.28487
 Alpha  occ. eigenvalues --   -0.26891  -0.26676  -0.25447
 Alpha virt. eigenvalues --   -0.04945  -0.00339   0.04300   0.09717   0.10737
 Alpha virt. eigenvalues --    0.13193   0.14481   0.16045   0.16580   0.17222
 Alpha virt. eigenvalues --    0.17983   0.18462   0.18584   0.19905   0.20484

 Mulliken atomic charges:
              1
     1  C    0.133678
     2  H    0.137755
     3  C   -0.188414
     4  H    0.151135
     5  C    0.420110
     6  O   -0.521446
     7  O   -0.592700
     8  H    0.348122
     9  C   -0.420160
    10  H    0.150145
    11  H    0.149078
    12  H    0.145945
    13  C   -0.008558
    14  C   -0.131896
    15  C   -0.137369
    16  C   -0.150592
    17  C   -0.161416
    18  C   -0.155423
    19  H    0.163415
    20  H    0.167153
    21  H    0.159565
    22  H    0.159775
    23  H    0.160306
    24  C   -0.416937
    25  H    0.146099
    26  H    0.148894
    27  H    0.143738
 Sum of Mulliken atomic charges =   0.00000

 Dipole moment (field-independent basis, Debye):
    X=              1.2857    Y=              0.8753    Z=              1.8370  Tot=              2.4070
 Quadrupole moment (field-independent basis, Debye-Ang):
   XX=            -64.4029   YY=            -77.4632   ZZ=            -79.3958
   XY=              6.2561   XZ=             -0.6331   YZ=             -2.1911

 Normal termination of Gaussian 09 at Tue Dec 21 07:59:33 2021.
