 Gaussian 09, Revision C.01,
 Gaussian 09:  EM64L-G09RevC.01 23-Sep-2011

 -----------------------------------------------------------------
 # mPW1PW91/6-31g** scrf=(pcm,solvent=chloroform,smd,dovacuum) nmr
 -----------------------------------------------------------------

 99/9=1/99;
 -------
 comment
 -------
 Charge =  0 Multiplicity = 1

                         Standard orientation:
 ---------------------------------------------------------------------
 Center     Atomic      Atomic             Coordinates (Angstroms)
 Number     Number       Type             X           Y           Z
 ---------------------------------------------------------------------
      1          6           0       -2.568640    0.240858   -0.365891
      2          1           0       -2.934789   -0.587534   -0.983278
      3          6           0       -1.416634   -0.231404    0.537503
      4          1           0       -1.104237    0.595965    1.180406
      5          6           0       -0.261495   -0.753435   -0.308905
      6          8           0       -0.427706   -1.636824   -1.149524
      7          8           0       -3.668132    0.675541    0.441609
      8          1           0       -3.401191    1.479313    0.918398
      9          6           0       -1.862640   -1.359373    1.473949
     10          1           0       -1.018978   -1.724333    2.070369
     11          1           0       -2.261426   -2.211294    0.912000
     12          1           0       -2.637548   -1.016060    2.166800
     13          6           0        1.114594   -0.221341   -0.092080
     14          6           0        3.742860    0.675840    0.263694
     15          6           0        2.197152   -1.063338   -0.381495
     16          6           0        1.357884    1.081156    0.357819
     17          6           0        2.671227    1.524734    0.538179
     18          6           0        3.506996   -0.616875   -0.199531
     19          1           0        2.023055   -2.073158   -0.749564
     20          1           0        0.550919    1.779794    0.552576
     21          1           0        2.860399    2.537817    0.885837
     22          1           0        4.341222   -1.277323   -0.423375
     23          1           0        4.763419    1.024876    0.402480
     24          6           0       -2.174226    1.398315   -1.279323
     25          1           0       -3.044280    1.747261   -1.846370
     26          1           0       -1.394954    1.109817   -1.990386
     27          1           0       -1.817375    2.254302   -0.696086
 ---------------------------------------------------------------------

 SCF Done:  E(RmPW1PW91) =  -577.946203667     A.U. after   12 cycles

      1  C    Isotropic =   124.9017   Anisotropy =    43.3373

      2  H    Isotropic =    27.6162   Anisotropy =     5.1878

      3  C    Isotropic =   143.6737   Anisotropy =    37.5667

      4  H    Isotropic =    28.2836   Anisotropy =     7.6143

      5  C    Isotropic =   -10.0878   Anisotropy =   177.4768

      6  O    Isotropic =  -236.6767   Anisotropy =   943.0533

      7  O    Isotropic =   276.4176   Anisotropy =    58.7675

      8  H    Isotropic =    31.2749   Anisotropy =    15.3404

      9  C    Isotropic =   177.8239   Anisotropy =    24.9273

     10  H    Isotropic =    30.7268   Anisotropy =     8.5044

     11  H    Isotropic =    30.4777   Anisotropy =     9.0745

     12  H    Isotropic =    29.9698   Anisotropy =     8.9434

     13  C    Isotropic =    61.0181   Anisotropy =   161.4889

     14  C    Isotropic =    66.5379   Anisotropy =   181.4080

     15  C    Isotropic =    69.2766   Anisotropy =   178.7030

     16  C    Isotropic =    70.8002   Anisotropy =   175.2708

     17  C    Isotropic =    70.3759   Anisotropy =   173.8377

     18  C    Isotropic =    69.7942   Anisotropy =   174.7219

     19  H    Isotropic =    23.3981   Anisotropy =     7.0606

     20  H    Isotropic =    23.4012   Anisotropy =     8.6852

     21  H    Isotropic =    23.7833   Anisotropy =     5.3122

     22  H    Isotropic =    23.7509   Anisotropy =     4.6955

     23  H    Isotropic =    23.6893   Anisotropy =     4.5006

     24  C    Isotropic =   171.6630   Anisotropy =    34.2834

     25  H    Isotropic =    30.2454   Anisotropy =    10.0662

     26  H    Isotropic =    30.5500   Anisotropy =     6.4516

     27  H    Isotropic =    30.7322   Anisotropy =     6.5565

 The electronic state is 1-A.
 Alpha  occ. eigenvalues --  -19.22840 -19.22815 -10.33634 -10.29305 -10.26315
 Alpha  occ. eigenvalues --  -10.26168 -10.25862 -10.25836 -10.25652 -10.25540
 Alpha  occ. eigenvalues --  -10.25151 -10.23208 -10.22786  -1.06318  -1.03742
 Alpha  occ. eigenvalues --   -0.88687  -0.82180  -0.78308  -0.77250  -0.74816
 Alpha  occ. eigenvalues --   -0.67324  -0.64719  -0.62886  -0.60937  -0.56113
 Alpha  occ. eigenvalues --   -0.53218  -0.49618  -0.48842  -0.47293  -0.45964
 Alpha  occ. eigenvalues --   -0.45558  -0.44856  -0.43570  -0.42825  -0.41623
 Alpha  occ. eigenvalues --   -0.39973  -0.38965  -0.37483  -0.36655  -0.36608
 Alpha  occ. eigenvalues --   -0.36529  -0.35373  -0.34854  -0.32404  -0.27990
 Alpha  occ. eigenvalues --   -0.26942  -0.26769  -0.25575
 Alpha virt. eigenvalues --   -0.04851  -0.00402   0.04059   0.09318   0.11652
 Alpha virt. eigenvalues --    0.13511   0.14461   0.14660   0.16631   0.17196
 Alpha virt. eigenvalues --    0.17833   0.18611   0.18821   0.19808   0.20435

 Mulliken atomic charges:
              1
     1  C    0.148205
     2  H    0.152251
     3  C   -0.205590
     4  H    0.144819
     5  C    0.418955
     6  O   -0.518097
     7  O   -0.592045
     8  H    0.339136
     9  C   -0.398298
    10  H    0.143681
    11  H    0.148688
    12  H    0.149549
    13  C   -0.007627
    14  C   -0.132391
    15  C   -0.136757
    16  C   -0.149883
    17  C   -0.160675
    18  C   -0.155558
    19  H    0.163997
    20  H    0.164868
    21  H    0.159239
    22  H    0.160159
    23  H    0.160293
    24  C   -0.428646
    25  H    0.149190
    26  H    0.146165
    27  H    0.136371
 Sum of Mulliken atomic charges =   0.00000

 Dipole moment (field-independent basis, Debye):
    X=              2.7070    Y=              3.5047    Z=              2.2777  Tot=              4.9798
 Quadrupole moment (field-independent basis, Debye-Ang):
   XX=            -75.9542   YY=            -72.3835   ZZ=            -79.0889
   XY=             -3.5769   XZ=             -0.7318   YZ=              0.5267

 Normal termination of Gaussian 09 at Tue Dec 21 08:28:53 2021.
