 Gaussian 09, Revision C.01,
 Gaussian 09:  EM64L-G09RevC.01 23-Sep-2011

 -----------------------------------------------------------------
 # mPW1PW91/6-31g** scrf=(pcm,solvent=chloroform,smd,dovacuum) nmr
 -----------------------------------------------------------------

 99/9=1/99;
 -------
 comment
 -------
 Charge =  0 Multiplicity = 1

                         Standard orientation:
 ---------------------------------------------------------------------
 Center     Atomic      Atomic             Coordinates (Angstroms)
 Number     Number       Type             X           Y           Z
 ---------------------------------------------------------------------
      1          6           0       -2.332365   -0.459950   -0.468842
      2          1           0       -2.450238    0.117097   -1.393897
      3          6           0       -1.452994    0.301985    0.537328
      4          1           0       -1.101810   -0.372989    1.324238
      5          6           0       -0.258357    0.885918   -0.215791
      6          8           0       -0.388425    1.867162   -0.950914
      7          8           0       -1.667062   -1.681746   -0.809225
      8          1           0       -2.151907   -2.074224   -1.557464
      9          6           0       -2.180656    1.459370    1.227998
     10          1           0       -2.667901    2.118931    0.501323
     11          1           0       -1.479235    2.068853    1.809058
     12          1           0       -2.943838    1.089027    1.919783
     13          6           0        1.101831    0.290055   -0.047015
     14          6           0        3.704334   -0.714397    0.236937
     15          6           0        1.308045   -1.021249    0.394771
     16          6           0        2.212236    1.088341   -0.359023
     17          6           0        3.508117    0.588832   -0.214314
     18          6           0        2.606668   -1.519356    0.537664
     19          1           0        0.476956   -1.686142    0.610690
     20          1           0        2.071204    2.107065   -0.715863
     21          1           0        4.361520    1.216801   -0.457336
     22          1           0        2.759915   -2.541294    0.876225
     23          1           0        4.712627   -1.105931    0.346504
     24          6           0       -3.709229   -0.832017    0.070916
     25          1           0       -4.239552   -1.473952   -0.641334
     26          1           0       -4.327597    0.051286    0.253589
     27          1           0       -3.622026   -1.403042    1.001828
 ---------------------------------------------------------------------

 SCF Done:  E(RmPW1PW91) =  -577.945527815     A.U. after   12 cycles

      1  C    Isotropic =   123.7676   Anisotropy =    45.6772

      2  H    Isotropic =    27.4300   Anisotropy =     4.6951

      3  C    Isotropic =   148.6491   Anisotropy =    24.8257

      4  H    Isotropic =    28.0258   Anisotropy =     7.9785

      5  C    Isotropic =   -11.8365   Anisotropy =   177.5540

      6  O    Isotropic =  -228.6972   Anisotropy =   933.4573

      7  O    Isotropic =   274.2094   Anisotropy =    78.2089

      8  H    Isotropic =    30.4568   Anisotropy =    19.0633

      9  C    Isotropic =   179.9758   Anisotropy =    17.5413

     10  H    Isotropic =    30.3408   Anisotropy =     8.7289

     11  H    Isotropic =    30.8025   Anisotropy =     9.5570

     12  H    Isotropic =    30.6637   Anisotropy =     8.8342

     13  C    Isotropic =    61.4427   Anisotropy =   161.1978

     14  C    Isotropic =    66.6518   Anisotropy =   181.2462

     15  C    Isotropic =    68.3229   Anisotropy =   180.3816

     16  C    Isotropic =    69.2379   Anisotropy =   180.0551

     17  C    Isotropic =    70.4732   Anisotropy =   172.9540

     18  C    Isotropic =    70.4184   Anisotropy =   173.1442

     19  H    Isotropic =    23.0348   Anisotropy =     9.6830

     20  H    Isotropic =    23.2483   Anisotropy =     7.2318

     21  H    Isotropic =    23.7621   Anisotropy =     4.7275

     22  H    Isotropic =    23.7672   Anisotropy =     5.5009

     23  H    Isotropic =    23.7123   Anisotropy =     4.5246

     24  C    Isotropic =   171.9606   Anisotropy =    30.8186

     25  H    Isotropic =    30.6176   Anisotropy =     9.2789

     26  H    Isotropic =    30.3259   Anisotropy =     8.3296

     27  H    Isotropic =    30.4754   Anisotropy =     7.2361

 The electronic state is 1-A.
 Alpha  occ. eigenvalues --  -19.22957 -19.22584 -10.33346 -10.29587 -10.25958
 Alpha  occ. eigenvalues --  -10.25642 -10.25606 -10.25531 -10.25369 -10.25280
 Alpha  occ. eigenvalues --  -10.25249 -10.23369 -10.22737  -1.05954  -1.03892
 Alpha  occ. eigenvalues --   -0.88316  -0.82344  -0.78164  -0.76879  -0.74072
 Alpha  occ. eigenvalues --   -0.68298  -0.64579  -0.62314  -0.59572  -0.55289
 Alpha  occ. eigenvalues --   -0.53812  -0.50932  -0.48479  -0.47080  -0.46697
 Alpha  occ. eigenvalues --   -0.45052  -0.44248  -0.43128  -0.42373  -0.41079
 Alpha  occ. eigenvalues --   -0.39174  -0.38857  -0.37921  -0.37281  -0.36348
 Alpha  occ. eigenvalues --   -0.35789  -0.35445  -0.34872  -0.32511  -0.27768
 Alpha  occ. eigenvalues --   -0.26648  -0.26479  -0.25571
 Alpha virt. eigenvalues --   -0.04775  -0.00008   0.04643   0.09776   0.11756
 Alpha virt. eigenvalues --    0.12364   0.14849   0.16513   0.17280   0.17300
 Alpha virt. eigenvalues --    0.17713   0.18322   0.19147   0.19374   0.19783

 Mulliken atomic charges:
              1
     1  C    0.136118
     2  H    0.139908
     3  C   -0.187114
     4  H    0.157933
     5  C    0.425555
     6  O   -0.517496
     7  O   -0.593993
     8  H    0.347226
     9  C   -0.410194
    10  H    0.152057
    11  H    0.149341
    12  H    0.147451
    13  C   -0.013280
    14  C   -0.132779
    15  C   -0.147905
    16  C   -0.139084
    17  C   -0.156654
    18  C   -0.162510
    19  H    0.166745
    20  H    0.161523
    21  H    0.157974
    22  H    0.157663
    23  H    0.158533
    24  C   -0.420604
    25  H    0.138361
    26  H    0.141497
    27  H    0.143730
 Sum of Mulliken atomic charges =   0.00000

 Dipole moment (field-independent basis, Debye):
    X=             -0.7921    Y=             -2.3538    Z=              1.1061  Tot=              2.7187
 Quadrupole moment (field-independent basis, Debye-Ang):
   XX=            -59.4875   YY=            -77.1868   ZZ=            -76.3108
   XY=              2.5542   XZ=              2.3574   YZ=              3.7558

 Normal termination of Gaussian 09 at Tue Dec 21 08:44:42 2021.
