 Gaussian 09, Revision C.01,
 Gaussian 09:  EM64L-G09RevC.01 23-Sep-2011

 -----------------------------------------------------------------
 # mPW1PW91/6-31g** scrf=(pcm,solvent=chloroform,smd,dovacuum) nmr
 -----------------------------------------------------------------

 99/9=1/99;
 -------
 comment
 -------
 Charge =  0 Multiplicity = 1

                         Standard orientation:
 ---------------------------------------------------------------------
 Center     Atomic      Atomic             Coordinates (Angstroms)
 Number     Number       Type             X           Y           Z
 ---------------------------------------------------------------------
      1          6           0       -2.397055   -0.414350   -0.449427
      2          1           0       -2.673769    0.247503   -1.279370
      3          6           0       -1.453506    0.292807    0.536836
      4          1           0       -1.097629   -0.417274    1.289801
      5          6           0       -0.270001    0.855670   -0.243565
      6          8           0       -0.409838    1.790823   -1.032853
      7          8           0       -1.727777   -1.553437   -1.001388
      8          1           0       -1.316047   -1.264526   -1.837001
      9          6           0       -2.122569    1.450307    1.281642
     10          1           0       -2.613273    2.142749    0.588722
     11          1           0       -1.384263    2.023586    1.853676
     12          1           0       -2.873821    1.084561    1.988475
     13          6           0        1.091373    0.276585   -0.049242
     14          6           0        3.691802   -0.712345    0.269237
     15          6           0        2.198824    1.094819   -0.311855
     16          6           0        1.296105   -1.046877    0.356583
     17          6           0        2.595122   -1.536778    0.517829
     18          6           0        3.494813    0.602327   -0.148666
     19          1           0        2.055438    2.121661   -0.643620
     20          1           0        0.464916   -1.725078    0.530047
     21          1           0        2.751037   -2.566836    0.830174
     22          1           0        4.348711    1.244066   -0.351281
     23          1           0        4.701034   -1.097609    0.393432
     24          6           0       -3.670025   -0.935717    0.207587
     25          1           0       -4.247325   -1.536565   -0.504076
     26          1           0       -4.309251   -0.121802    0.560767
     27          1           0       -3.434132   -1.592208    1.052430
 ---------------------------------------------------------------------

 SCF Done:  E(RmPW1PW91) =  -577.946324096     A.U. after   12 cycles

      1  C    Isotropic =   123.9565   Anisotropy =    46.3206

      2  H    Isotropic =    27.4103   Anisotropy =     4.5097

      3  C    Isotropic =   144.5286   Anisotropy =    28.9596

      4  H    Isotropic =    27.9216   Anisotropy =     7.8393

      5  C    Isotropic =   -12.7427   Anisotropy =   180.2079

      6  O    Isotropic =  -237.7232   Anisotropy =   948.3473

      7  O    Isotropic =   286.7047   Anisotropy =    53.0046

      8  H    Isotropic =    29.7687   Anisotropy =    16.0504

      9  C    Isotropic =   179.6774   Anisotropy =    20.0799

     10  H    Isotropic =    30.4838   Anisotropy =     8.5431

     11  H    Isotropic =    30.8276   Anisotropy =     9.3675

     12  H    Isotropic =    30.6985   Anisotropy =     8.8654

     13  C    Isotropic =    60.4044   Anisotropy =   161.7883

     14  C    Isotropic =    66.6747   Anisotropy =   181.2310

     15  C    Isotropic =    69.5854   Anisotropy =   178.3319

     16  C    Isotropic =    68.8712   Anisotropy =   180.0746

     17  C    Isotropic =    70.2918   Anisotropy =   173.8496

     18  C    Isotropic =    70.3079   Anisotropy =   173.6179

     19  H    Isotropic =    23.3432   Anisotropy =     7.1019

     20  H    Isotropic =    22.9992   Anisotropy =     9.4444

     21  H    Isotropic =    23.7413   Anisotropy =     5.4417

     22  H    Isotropic =    23.7618   Anisotropy =     4.7076

     23  H    Isotropic =    23.6973   Anisotropy =     4.4996

     24  C    Isotropic =   174.5840   Anisotropy =    28.9440

     25  H    Isotropic =    30.3487   Anisotropy =     9.8406

     26  H    Isotropic =    30.3169   Anisotropy =     8.2374

     27  H    Isotropic =    30.5389   Anisotropy =     7.5659

 The electronic state is 1-A.
 Alpha  occ. eigenvalues --  -19.23074 -19.22775 -10.33404 -10.29479 -10.26104
 Alpha  occ. eigenvalues --  -10.25826 -10.25728 -10.25701 -10.25433 -10.25400
 Alpha  occ. eigenvalues --  -10.24975 -10.23332 -10.22694  -1.06221  -1.03916
 Alpha  occ. eigenvalues --   -0.88492  -0.82269  -0.78341  -0.77064  -0.74336
 Alpha  occ. eigenvalues --   -0.68014  -0.64392  -0.62445  -0.59587  -0.55397
 Alpha  occ. eigenvalues --   -0.53924  -0.51941  -0.48655  -0.47061  -0.46496
 Alpha  occ. eigenvalues --   -0.45245  -0.43726  -0.43293  -0.42451  -0.40105
 Alpha  occ. eigenvalues --   -0.39691  -0.38835  -0.38056  -0.37363  -0.36606
 Alpha  occ. eigenvalues --   -0.35854  -0.35331  -0.34996  -0.32773  -0.27962
 Alpha  occ. eigenvalues --   -0.26825  -0.26664  -0.25579
 Alpha virt. eigenvalues --   -0.04830  -0.00201   0.04273   0.09803   0.11552
 Alpha virt. eigenvalues --    0.12412   0.14732   0.16254   0.17150   0.17328
 Alpha virt. eigenvalues --    0.17562   0.18447   0.18954   0.19263   0.20448

 Mulliken atomic charges:
              1
     1  C    0.119313
     2  H    0.143237
     3  C   -0.173560
     4  H    0.152880
     5  C    0.406864
     6  O   -0.517702
     7  O   -0.591083
     8  H    0.350438
     9  C   -0.412018
    10  H    0.150349
    11  H    0.147484
    12  H    0.148598
    13  C   -0.010118
    14  C   -0.132722
    15  C   -0.138678
    16  C   -0.151104
    17  C   -0.161402
    18  C   -0.156790
    19  H    0.162142
    20  H    0.166231
    21  H    0.158788
    22  H    0.158818
    23  H    0.159280
    24  C   -0.411889
    25  H    0.144576
    26  H    0.145910
    27  H    0.142157
 Sum of Mulliken atomic charges =   0.00000

 Dipole moment (field-independent basis, Debye):
    X=              0.7884    Y=             -1.1294    Z=              1.2707  Tot=              1.8739
 Quadrupole moment (field-independent basis, Debye-Ang):
   XX=            -64.1363   YY=            -80.3806   ZZ=            -76.0864
   XY=             -2.1825   XZ=             -0.6122   YZ=              1.3853

 Normal termination of Gaussian 09 at Tue Dec 21 10:19:06 2021.
