 Gaussian 09, Revision C.01,
 Gaussian 09:  EM64L-G09RevC.01 23-Sep-2011

 -----------------------------------------------------------------
 # mPW1PW91/6-31g** scrf=(pcm,solvent=chloroform,smd,dovacuum) nmr
 -----------------------------------------------------------------

 99/9=1/99;
 -------
 comment
 -------
 Charge =  0 Multiplicity = 1

                         Standard orientation:
 ---------------------------------------------------------------------
 Center     Atomic      Atomic             Coordinates (Angstroms)
 Number     Number       Type             X           Y           Z
 ---------------------------------------------------------------------
      1          6           0       -1.965717    0.772846    0.523015
      2          1           0       -1.135357    1.302372    1.003336
      3          6           0       -1.450697   -0.054679   -0.669096
      4          1           0       -1.124263    0.622875   -1.466588
      5          6           0       -0.260746   -0.912958   -0.242977
      6          8           0       -0.398157   -2.103886    0.037640
      7          8           0       -2.876246    1.773001    0.057715
      8          1           0       -2.399414    2.362743   -0.549747
      9          6           0       -2.536902   -0.919969   -1.318540
     10          1           0       -2.907694   -1.696733   -0.641926
     11          1           0       -2.137711   -1.430225   -2.202558
     12          1           0       -3.386973   -0.309530   -1.639662
     13          6           0        1.106028   -0.304886   -0.135955
     14          6           0        3.711089    0.713123    0.112789
     15          6           0        2.152712   -1.118773    0.324112
     16          6           0        1.382106    1.026469   -0.472262
     17          6           0        2.680772    1.531046   -0.346732
     18          6           0        3.448097   -0.612240    0.448150
     19          1           0        1.964930   -2.158027    0.590380
     20          1           0        0.614633    1.701451   -0.834690
     21          1           0        2.889965    2.565787   -0.609015
     22          1           0        4.249143   -1.254515    0.806123
     23          1           0        4.719642    1.108194    0.208820
     24          6           0       -2.684956   -0.034619    1.598205
     25          1           0       -2.965616    0.620455    2.430928
     26          1           0       -2.056206   -0.837178    1.993553
     27          1           0       -3.620572   -0.462747    1.223958
 ---------------------------------------------------------------------

 SCF Done:  E(RmPW1PW91) =  -577.946180398     A.U. after   12 cycles

      1  C    Isotropic =   128.4292   Anisotropy =    45.8160

      2  H    Isotropic =    27.1314   Anisotropy =     6.2043

      3  C    Isotropic =   146.0714   Anisotropy =    28.4752

      4  H    Isotropic =    27.9165   Anisotropy =     8.1721

      5  C    Isotropic =    -4.1125   Anisotropy =   166.5059

      6  O    Isotropic =  -239.3670   Anisotropy =   957.8297

      7  O    Isotropic =   283.6409   Anisotropy =   102.3562

      8  H    Isotropic =    30.6108   Anisotropy =    18.2479

      9  C    Isotropic =   184.8303   Anisotropy =    11.7181

     10  H    Isotropic =    29.9818   Anisotropy =     8.2880

     11  H    Isotropic =    30.8879   Anisotropy =    10.1730

     12  H    Isotropic =    30.4091   Anisotropy =     8.9299

     13  C    Isotropic =    65.0768   Anisotropy =   158.6430

     14  C    Isotropic =    65.9178   Anisotropy =   182.2998

     15  C    Isotropic =    69.0089   Anisotropy =   185.2541

     16  C    Isotropic =    69.8874   Anisotropy =   175.2564

     17  C    Isotropic =    69.9753   Anisotropy =   172.9443

     18  C    Isotropic =    69.3756   Anisotropy =   174.5455

     19  H    Isotropic =    23.0078   Anisotropy =     7.3474

     20  H    Isotropic =    23.2300   Anisotropy =     9.2706

     21  H    Isotropic =    23.7420   Anisotropy =     5.3843

     22  H    Isotropic =    23.6863   Anisotropy =     4.8638

     23  H    Isotropic =    23.6847   Anisotropy =     4.5568

     24  C    Isotropic =   180.3724   Anisotropy =    23.7220

     25  H    Isotropic =    30.6021   Anisotropy =    10.5431

     26  H    Isotropic =    30.9371   Anisotropy =     8.4762

     27  H    Isotropic =    30.4679   Anisotropy =     7.3499

 The electronic state is 1-A.
 Alpha  occ. eigenvalues --  -19.22910 -19.22870 -10.33667 -10.29697 -10.26440
 Alpha  occ. eigenvalues --  -10.26279 -10.25947 -10.25805 -10.25693 -10.25556
 Alpha  occ. eigenvalues --  -10.25269 -10.22728 -10.22663  -1.06250  -1.03851
 Alpha  occ. eigenvalues --   -0.88688  -0.82169  -0.78330  -0.77242  -0.74463
 Alpha  occ. eigenvalues --   -0.68206  -0.64261  -0.62554  -0.59919  -0.55729
 Alpha  occ. eigenvalues --   -0.52671  -0.51756  -0.48919  -0.48591  -0.46996
 Alpha  occ. eigenvalues --   -0.45315  -0.43768  -0.43415  -0.41293  -0.41093
 Alpha  occ. eigenvalues --   -0.39241  -0.38481  -0.38150  -0.36931  -0.36330
 Alpha  occ. eigenvalues --   -0.36094  -0.35594  -0.34792  -0.32728  -0.28168
 Alpha  occ. eigenvalues --   -0.26998  -0.26740  -0.25715
 Alpha virt. eigenvalues --   -0.05288  -0.00420   0.04629   0.08560   0.11952
 Alpha virt. eigenvalues --    0.12729   0.15037   0.16112   0.17028   0.17417
 Alpha virt. eigenvalues --    0.18013   0.18299   0.19213   0.19868   0.20498

 Mulliken atomic charges:
              1
     1  C    0.141512
     2  H    0.130558
     3  C   -0.224646
     4  H    0.158325
     5  C    0.431300
     6  O   -0.511403
     7  O   -0.590578
     8  H    0.342888
     9  C   -0.401156
    10  H    0.149430
    11  H    0.141245
    12  H    0.139939
    13  C   -0.008507
    14  C   -0.130618
    15  C   -0.136003
    16  C   -0.155725
    17  C   -0.162718
    18  C   -0.154808
    19  H    0.164526
    20  H    0.161391
    21  H    0.159487
    22  H    0.160476
    23  H    0.161065
    24  C   -0.413538
    25  H    0.146942
    26  H    0.151496
    27  H    0.149121
 Sum of Mulliken atomic charges =   0.00000

 Dipole moment (field-independent basis, Debye):
    X=              2.8993    Y=              3.4408    Z=             -1.0467  Tot=              4.6196
 Quadrupole moment (field-independent basis, Debye-Ang):
   XX=            -74.4083   YY=            -77.1331   ZZ=            -75.9045
   XY=              2.0708   XZ=              3.2724   YZ=             -4.3940

 Normal termination of Gaussian 09 at Tue Dec 21 09:24:59 2021.
