 Gaussian 09, Revision C.01,
 Gaussian 09:  EM64L-G09RevC.01 23-Sep-2011

 -----------------------------------------------------------------
 # mPW1PW91/6-31g** scrf=(pcm,solvent=chloroform,smd,dovacuum) nmr
 -----------------------------------------------------------------

 99/9=1/99;
 -------
 comment
 -------
 Charge =  0 Multiplicity = 1

                         Standard orientation:
 ---------------------------------------------------------------------
 Center     Atomic      Atomic             Coordinates (Angstroms)
 Number     Number       Type             X           Y           Z
 ---------------------------------------------------------------------
      1          6           0        2.575966   -0.370999   -0.054320
      2          1           0        3.458053   -0.627464    0.545890
      3          6           0        1.552770    0.295932    0.881240
      4          1           0        2.076747    1.130802    1.372814
      5          6           0        0.403355    0.989150    0.145209
      6          8           0        0.560003    2.123623   -0.316037
      7          8           0        2.074482   -1.600414   -0.572532
      8          1           0        2.766176   -1.979921   -1.143696
      9          6           0        1.113285   -0.613976    2.029376
     10          1           0        0.711316   -1.569959    1.684197
     11          1           0        0.347819   -0.129094    2.644787
     12          1           0        1.966603   -0.840518    2.678379
     13          6           0       -0.940165    0.365903   -0.006967
     14          6           0       -3.524315   -0.673307   -0.297891
     15          6           0       -1.123999   -0.988344   -0.291847
     16          6           0       -2.059730    1.202823    0.105883
     17          6           0       -3.347814    0.683200   -0.033602
     18          6           0       -2.414620   -1.506918   -0.431065
     19          1           0       -0.281466   -1.657010   -0.427778
     20          1           0       -1.929471    2.265558    0.301840
     21          1           0       -4.210370    1.338323    0.058137
     22          1           0       -2.552119   -2.562610   -0.652546
     23          1           0       -4.526445   -1.079525   -0.410647
     24          6           0        3.035244    0.509758   -1.211008
     25          1           0        3.850741    0.021265   -1.756105
     26          1           0        3.393791    1.480787   -0.856810
     27          1           0        2.232870    0.664364   -1.939962
 ---------------------------------------------------------------------

 SCF Done:  E(RmPW1PW91) =  -577.940712760     A.U. after   12 cycles

      1  C    Isotropic =   127.2443   Anisotropy =    41.4716

      2  H    Isotropic =    27.2942   Anisotropy =     6.2621

      3  C    Isotropic =   144.3567   Anisotropy =    22.7606

      4  H    Isotropic =    28.7539   Anisotropy =     6.2911

      5  C    Isotropic =   -13.2379   Anisotropy =   175.6508

      6  O    Isotropic =  -301.9193   Anisotropy =   947.8550

      7  O    Isotropic =   281.0536   Anisotropy =    63.4495

      8  H    Isotropic =    30.3066   Anisotropy =    18.7251

      9  C    Isotropic =   179.0555   Anisotropy =    14.9806

     10  H    Isotropic =    29.8346   Anisotropy =     6.2355

     11  H    Isotropic =    30.6611   Anisotropy =     7.7938

     12  H    Isotropic =    30.5733   Anisotropy =    10.9252

     13  C    Isotropic =    61.1194   Anisotropy =   160.2790

     14  C    Isotropic =    68.0440   Anisotropy =   179.8024

     15  C    Isotropic =    70.7849   Anisotropy =   182.1319

     16  C    Isotropic =    68.9082   Anisotropy =   174.0192

     17  C    Isotropic =    70.4364   Anisotropy =   174.1563

     18  C    Isotropic =    71.3083   Anisotropy =   173.4723

     19  H    Isotropic =    23.1169   Anisotropy =     9.6790

     20  H    Isotropic =    23.6421   Anisotropy =     6.7291

     21  H    Isotropic =    23.7874   Anisotropy =     4.5365

     22  H    Isotropic =    23.8421   Anisotropy =     5.4595

     23  H    Isotropic =    23.7851   Anisotropy =     4.3243

     24  C    Isotropic =   171.5681   Anisotropy =    30.6701

     25  H    Isotropic =    30.5241   Anisotropy =     9.4924

     26  H    Isotropic =    30.2587   Anisotropy =     9.8693

     27  H    Isotropic =    30.5458   Anisotropy =     4.9176

 The electronic state is 1-A.
 Alpha  occ. eigenvalues --  -19.23289 -19.22699 -10.33548 -10.29794 -10.25946
 Alpha  occ. eigenvalues --  -10.25605 -10.25530 -10.25417 -10.25324 -10.25180
 Alpha  occ. eigenvalues --  -10.25163 -10.23062 -10.22637  -1.05969  -1.04320
 Alpha  occ. eigenvalues --   -0.88280  -0.82264  -0.78044  -0.76809  -0.74625
 Alpha  occ. eigenvalues --   -0.66922  -0.64878  -0.62409  -0.61050  -0.56218
 Alpha  occ. eigenvalues --   -0.52554  -0.51012  -0.47422  -0.46909  -0.46330
 Alpha  occ. eigenvalues --   -0.45229  -0.44410  -0.43517  -0.42710  -0.41650
 Alpha  occ. eigenvalues --   -0.39430  -0.38697  -0.38240  -0.37074  -0.36668
 Alpha  occ. eigenvalues --   -0.35743  -0.34829  -0.34297  -0.32681  -0.28057
 Alpha  occ. eigenvalues --   -0.26674  -0.26432  -0.25148
 Alpha virt. eigenvalues --   -0.04274   0.00074   0.03436   0.08975   0.11846
 Alpha virt. eigenvalues --    0.13942   0.14742   0.16076   0.16782   0.16990
 Alpha virt. eigenvalues --    0.17542   0.18294   0.18808   0.20368   0.20840

 Mulliken atomic charges:
              1
     1  C    0.134415
     2  H    0.131491
     3  C   -0.201961
     4  H    0.175966
     5  C    0.409766
     6  O   -0.500036
     7  O   -0.580453
     8  H    0.349670
     9  C   -0.414170
    10  H    0.151243
    11  H    0.147005
    12  H    0.144516
    13  C   -0.012630
    14  C   -0.136015
    15  C   -0.146966
    16  C   -0.141991
    17  C   -0.156604
    18  C   -0.161538
    19  H    0.169390
    20  H    0.159962
    21  H    0.157330
    22  H    0.156722
    23  H    0.156787
    24  C   -0.422840
    25  H    0.135934
    26  H    0.145446
    27  H    0.149559
 Sum of Mulliken atomic charges =   0.00000

 Dipole moment (field-independent basis, Debye):
    X=              1.1593    Y=             -2.6748    Z=              0.6716  Tot=              2.9916
 Quadrupole moment (field-independent basis, Debye-Ang):
   XX=            -57.7868   YY=            -78.8545   ZZ=            -76.3175
   XY=             -4.0062   XZ=             -1.2458   YZ=              5.6474

 Normal termination of Gaussian 09 at Tue Dec 21 10:09:46 2021.
