 Gaussian 09, Revision C.01,
 Gaussian 09:  EM64L-G09RevC.01 23-Sep-2011

 ----------------------------------------------------------------
 # wb97xd/6-31+g** scrf=(pcm,solvent=chloroform,smd,dovacuum) nmr
 ----------------------------------------------------------------

 99/9=1/99;
 -------
 comment
 -------
 Charge =  0 Multiplicity = 1

                         Standard orientation:
 ---------------------------------------------------------------------
 Center     Atomic      Atomic             Coordinates (Angstroms)
 Number     Number       Type             X           Y           Z
 ---------------------------------------------------------------------
      1          6           0        2.122386    1.416719   -0.339208
      2          6           0        4.099002   -0.451544    0.267441
      3          6           0        3.413705    1.842301   -0.020600
      4          6           0        1.801184    0.049079   -0.359113
      5          6           0        2.808126   -0.878000   -0.050843
      6          6           0        4.401168    0.908045    0.283162
      7          6           0        0.383219   -0.385852   -0.686934
      8          6           0       -0.554473   -0.257209    0.529325
      9          6           0       -1.981637   -0.314721    0.032857
     10          8           0       -2.796299    0.415426    0.843502
     11          6           0       -4.188612    0.421889    0.493875
     12          8           0        0.388667   -1.722548   -1.195432
     13          6           0       -0.363159   -1.342006    1.587011
     14          8           0       -2.343474   -0.944560   -0.953608
     15          6           0       -4.468082    1.516356   -0.518796
     16          1           0        1.366877    2.162709   -0.575764
     17          1           0        4.867921   -1.183526    0.499938
     18          1           0        3.649800    2.903147   -0.011691
     19          1           0        2.589959   -1.944401   -0.061499
     20          1           0        5.406825    1.238313    0.528851
     21          1           0        0.030713    0.250355   -1.510087
     22          1           0       -0.407015    0.729452    0.988044
     23          1           0       -4.748414    0.619411    1.413879
     24          1           0       -4.510752   -0.558622    0.124974
     25          1           0       -0.515163   -1.890306   -1.529505
     26          1           0        0.649263   -1.320863    2.000830
     27          1           0       -1.062712   -1.197955    2.418175
     28          1           0       -0.549626   -2.342236    1.181225
     29          1           0       -4.141583    2.488221   -0.134330
     30          1           0       -5.535963    1.568355   -0.748921
     31          1           0       -3.918248    1.341047   -1.448876
 ---------------------------------------------------------------------

 SCF Done:  E(RwB97XD) =  -692.446859875     A.U. after   16 cycles

      1  C    Isotropic =    71.7843   Anisotropy =   165.6652

      2  C    Isotropic =    70.5994   Anisotropy =   175.1688

      3  C    Isotropic =    70.6871   Anisotropy =   173.9316

      4  C    Isotropic =    53.6566   Anisotropy =   180.2913

      5  C    Isotropic =    72.4036   Anisotropy =   182.4129

      6  C    Isotropic =    73.1163   Anisotropy =   176.1461

      7  C    Isotropic =   122.6352   Anisotropy =    38.4561

      8  C    Isotropic =   147.5899   Anisotropy =    34.0571

      9  C    Isotropic =    14.5610   Anisotropy =   106.7079

     10  O    Isotropic =   131.1415   Anisotropy =   148.0501

     11  C    Isotropic =   137.2771   Anisotropy =    66.1845

     12  O    Isotropic =   304.1282   Anisotropy =    71.0844

     13  C    Isotropic =   186.6501   Anisotropy =    18.8130

     14  O    Isotropic =   -20.1385   Anisotropy =   524.0985

     15  C    Isotropic =   181.2007   Anisotropy =    26.2310

     16  H    Isotropic =    23.9350   Anisotropy =     8.6814

     17  H    Isotropic =    23.7441   Anisotropy =     5.0318

     18  H    Isotropic =    23.7859   Anisotropy =     4.9884

     19  H    Isotropic =    23.4053   Anisotropy =    10.2014

     20  H    Isotropic =    23.7688   Anisotropy =     4.1830

     21  H    Isotropic =    26.2705   Anisotropy =     5.8110

     22  H    Isotropic =    29.0097   Anisotropy =     5.4827

     23  H    Isotropic =    27.7763   Anisotropy =     8.0704

     24  H    Isotropic =    26.9000   Anisotropy =     6.0793

     25  H    Isotropic =    27.7509   Anisotropy =    20.3698

     26  H    Isotropic =    30.6237   Anisotropy =     8.6552

     27  H    Isotropic =    30.7342   Anisotropy =     9.9032

     28  H    Isotropic =    30.1104   Anisotropy =     7.5289

     29  H    Isotropic =    30.4062   Anisotropy =     8.5076

     30  H    Isotropic =    30.5609   Anisotropy =    11.4331

     31  H    Isotropic =    30.2280   Anisotropy =     5.9383

 The electronic state is 1-A.
 Alpha  occ. eigenvalues --  -19.33287 -19.28440 -19.27474 -10.44541 -10.35863
 Alpha  occ. eigenvalues --  -10.35277 -10.31937 -10.31542 -10.30645 -10.30543
 Alpha  occ. eigenvalues --  -10.30446 -10.30328 -10.30307 -10.29228 -10.28858
 Alpha  occ. eigenvalues --   -1.21536  -1.13633  -1.12006  -0.96062  -0.91406
 Alpha  occ. eigenvalues --   -0.86957  -0.85122  -0.84525  -0.77973  -0.76397
 Alpha  occ. eigenvalues --   -0.71571  -0.69867  -0.67004  -0.65113  -0.60976
 Alpha  occ. eigenvalues --   -0.59775  -0.59316  -0.58612  -0.56267  -0.54719
 Alpha  occ. eigenvalues --   -0.53985  -0.53340  -0.52280  -0.50294  -0.50125
 Alpha  occ. eigenvalues --   -0.49737  -0.47511  -0.46716  -0.46360  -0.45315
 Alpha  occ. eigenvalues --   -0.45243  -0.44537  -0.43082  -0.42136  -0.42071
 Alpha  occ. eigenvalues --   -0.40796  -0.39280  -0.36984  -0.36287  -0.33073
 Alpha  occ. eigenvalues --   -0.32256
 Alpha virt. eigenvalues --    0.05177   0.05586   0.06140   0.07110   0.07865
 Alpha virt. eigenvalues --    0.08092   0.09016   0.09190   0.09673   0.10659
 Alpha virt. eigenvalues --    0.10683   0.11164   0.11269   0.11567   0.12654

 Mulliken atomic charges:
              1
     1  C   -0.067990
     2  C   -0.264612
     3  C   -0.289202
     4  C   -0.182424
     5  C    0.026677
     6  C   -0.160956
     7  C    0.103470
     8  C   -0.069279
     9  C    0.253815
    10  O   -0.267610
    11  C   -0.064562
    12  O   -0.587267
    13  C   -0.549157
    14  O   -0.523666
    15  C   -0.474725
    16  H    0.175018
    17  H    0.183698
    18  H    0.183494
    19  H    0.185980
    20  H    0.181055
    21  H    0.158529
    22  H    0.199882
    23  H    0.175986
    24  H    0.180581
    25  H    0.406135
    26  H    0.186513
    27  H    0.177829
    28  H    0.190002
    29  H    0.174283
    30  H    0.179138
    31  H    0.179363
 Sum of Mulliken atomic charges =   0.00000

 Dipole moment (field-independent basis, Debye):
    X=             -2.2784    Y=              2.6406    Z=              2.1385  Tot=              4.0911
 Quadrupole moment (field-independent basis, Debye-Ang):
   XX=            -74.6369   YY=            -87.8016   ZZ=            -94.7096
   XY=             -1.1189   XZ=              0.6833   YZ=             -4.7759

 Normal termination of Gaussian 09 at Tue May 17 15:48:40 2022.
