 Gaussian 09, Revision C.01,
 Gaussian 09:  EM64L-G09RevC.01 23-Sep-2011

 ----------------------------------------------------------------
 # wb97xd/6-31+g** scrf=(pcm,solvent=chloroform,smd,dovacuum) nmr
 ----------------------------------------------------------------

 99/9=1/99;
 -------
 comment
 -------
 Charge =  0 Multiplicity = 1

                         Standard orientation:
 ---------------------------------------------------------------------
 Center     Atomic      Atomic             Coordinates (Angstroms)
 Number     Number       Type             X           Y           Z
 ---------------------------------------------------------------------
      1          6           0        1.789454   -0.598228    1.215613
      2          6           0        3.079215   -0.899717   -1.239099
      3          6           0        2.665264   -1.665722    1.011111
      4          6           0        1.550486    0.333488    0.194784
      5          6           0        2.203188    0.167610   -1.037156
      6          6           0        3.310411   -1.815324   -0.214812
      7          6           0        0.585260    1.482978    0.421865
      8          6           0       -0.741002    1.310010   -0.331445
      9          6           0       -1.474097    0.108743    0.220549
     10          8           0       -1.950006   -0.661831   -0.797151
     11          6           0       -2.663093   -1.843786   -0.406265
     12          8           0        1.220994    2.699036    0.007636
     13          6           0       -1.651197    2.530894   -0.203659
     14          8           0       -1.638679   -0.115821    1.412898
     15          6           0       -4.127902   -1.519673   -0.181081
     16          1           0        1.285929   -0.504950    2.176718
     17          1           0        3.579961   -1.017452   -2.196680
     18          1           0        2.840922   -2.383129    1.808791
     19          1           0        2.030853    0.874184   -1.847363
     20          1           0        3.991393   -2.647587   -0.372695
     21          1           0        0.398989    1.593986    1.497494
     22          1           0       -0.538874    1.154071   -1.399087
     23          1           0       -2.212953   -2.306254    0.479682
     24          1           0       -2.566813   -2.561696   -1.227340
     25          1           0        2.152375    2.638560    0.285553
     26          1           0       -1.202452    3.411403   -0.674209
     27          1           0       -2.616610    2.348134   -0.688723
     28          1           0       -1.852003    2.769124    0.846837
     29          1           0       -4.250652   -0.801800    0.636029
     30          1           0       -4.692561   -2.424404    0.061079
     31          1           0       -4.561902   -1.060906   -1.075579
 ---------------------------------------------------------------------

 SCF Done:  E(RwB97XD) =  -692.445495235     A.U. after   16 cycles

      1  C    Isotropic =    69.6913   Anisotropy =   164.1037

      2  C    Isotropic =    69.2933   Anisotropy =   176.6473

      3  C    Isotropic =    70.4063   Anisotropy =   173.9324

      4  C    Isotropic =    51.1240   Anisotropy =   185.5515

      5  C    Isotropic =    73.1434   Anisotropy =   180.8514

      6  C    Isotropic =    71.4569   Anisotropy =   177.6439

      7  C    Isotropic =   119.5781   Anisotropy =    28.7910

      8  C    Isotropic =   146.5102   Anisotropy =    27.7506

      9  C    Isotropic =    19.6558   Anisotropy =   102.2900

     10  O    Isotropic =   126.4373   Anisotropy =   149.3200

     11  C    Isotropic =   138.1310   Anisotropy =    65.5977

     12  O    Isotropic =   276.7831   Anisotropy =    63.6146

     13  C    Isotropic =   180.5094   Anisotropy =    26.4814

     14  O    Isotropic =   -33.7211   Anisotropy =   563.7690

     15  C    Isotropic =   181.7544   Anisotropy =    26.3205

     16  H    Isotropic =    23.8474   Anisotropy =     7.7598

     17  H    Isotropic =    23.7280   Anisotropy =     4.9079

     18  H    Isotropic =    23.9344   Anisotropy =     4.8542

     19  H    Isotropic =    23.3752   Anisotropy =     9.3775

     20  H    Isotropic =    23.8136   Anisotropy =     4.1254

     21  H    Isotropic =    26.5977   Anisotropy =     5.9978

     22  H    Isotropic =    28.5534   Anisotropy =     4.0083

     23  H    Isotropic =    27.3714   Anisotropy =     5.0524

     24  H    Isotropic =    28.2111   Anisotropy =     7.4080

     25  H    Isotropic =    30.0043   Anisotropy =    14.8055

     26  H    Isotropic =    29.8122   Anisotropy =     9.1264

     27  H    Isotropic =    30.4158   Anisotropy =     9.3094

     28  H    Isotropic =    30.3710   Anisotropy =     8.4995

     29  H    Isotropic =    30.3733   Anisotropy =     6.0755

     30  H    Isotropic =    30.7776   Anisotropy =    11.6319

     31  H    Isotropic =    30.5650   Anisotropy =     8.7413

 The electronic state is 1-A.
 Alpha  occ. eigenvalues --  -19.32917 -19.28111 -19.27663 -10.44156 -10.35879
 Alpha  occ. eigenvalues --  -10.34997 -10.31868 -10.31498 -10.30817 -10.30752
 Alpha  occ. eigenvalues --  -10.30740 -10.30670 -10.30605 -10.29051 -10.28636
 Alpha  occ. eigenvalues --   -1.21029  -1.12955  -1.12558  -0.96272  -0.91469
 Alpha  occ. eigenvalues --   -0.86671  -0.85345  -0.84804  -0.77725  -0.76281
 Alpha  occ. eigenvalues --   -0.70827  -0.70082  -0.68170  -0.64267  -0.62291
 Alpha  occ. eigenvalues --   -0.60986  -0.57885  -0.56959  -0.56303  -0.55761
 Alpha  occ. eigenvalues --   -0.53403  -0.52677  -0.51604  -0.50909  -0.50426
 Alpha  occ. eigenvalues --   -0.48940  -0.48300  -0.46940  -0.46134  -0.45589
 Alpha  occ. eigenvalues --   -0.44887  -0.44256  -0.43287  -0.42339  -0.41905
 Alpha  occ. eigenvalues --   -0.40048  -0.38866  -0.37466  -0.36070  -0.33369
 Alpha  occ. eigenvalues --   -0.32532
 Alpha virt. eigenvalues --    0.04674   0.05337   0.06612   0.06812   0.07704
 Alpha virt. eigenvalues --    0.08240   0.08678   0.09426   0.09747   0.10197
 Alpha virt. eigenvalues --    0.10648   0.11089   0.11842   0.12006   0.12882

 Mulliken atomic charges:
              1
     1  C   -0.027145
     2  C   -0.215197
     3  C   -0.299849
     4  C   -0.370603
     5  C   -0.012308
     6  C   -0.161774
     7  C    0.229061
     8  C    0.176067
     9  C   -0.146490
    10  O   -0.219393
    11  C    0.017611
    12  O   -0.553803
    13  C   -0.554659
    14  O   -0.449105
    15  C   -0.515866
    16  H    0.176115
    17  H    0.185176
    18  H    0.184574
    19  H    0.183404
    20  H    0.183085
    21  H    0.161722
    22  H    0.199307
    23  H    0.180217
    24  H    0.172812
    25  H    0.398836
    26  H    0.189255
    27  H    0.176982
    28  H    0.180941
    29  H    0.180003
    30  H    0.177113
    31  H    0.173910
 Sum of Mulliken atomic charges =   0.00000

 Dipole moment (field-independent basis, Debye):
    X=              0.4942    Y=             -1.9390    Z=             -1.3319  Tot=              2.4037
 Quadrupole moment (field-independent basis, Debye-Ang):
   XX=            -79.8750   YY=            -87.3993   ZZ=            -90.1978
   XY=              0.6800   XZ=              3.2399   YZ=              0.5995

 Normal termination of Gaussian 09 at Tue May 17 15:16:24 2022.
