 Gaussian 09, Revision C.01,
 Gaussian 09:  EM64L-G09RevC.01 23-Sep-2011

 ----------------------------------------------------------------
 # wb97xd/6-31+g** scrf=(pcm,solvent=chloroform,smd,dovacuum) nmr
 ----------------------------------------------------------------

 99/9=1/99;
 -------
 comment
 -------
 Charge =  0 Multiplicity = 1

                         Standard orientation:
 ---------------------------------------------------------------------
 Center     Atomic      Atomic             Coordinates (Angstroms)
 Number     Number       Type             X           Y           Z
 ---------------------------------------------------------------------
      1          6           0       -2.566975    0.567600    0.088598
      2          6           0       -1.989434   -2.141158   -0.195336
      3          6           0       -3.487328   -0.283509   -0.526815
      4          6           0       -1.339285    0.079507    0.565991
      5          6           0       -1.068366   -1.290226    0.420033
      6          6           0       -3.197030   -1.637293   -0.670890
      7          6           0       -0.348194    1.031773    1.209312
      8          6           0        0.615086    1.761328    0.250949
      9          6           0        1.355766    0.800757   -0.662122
     10          8           0        2.063505   -0.100850    0.083727
     11          6           0        2.814873   -1.041812   -0.695325
     12          8           0        0.376300    0.368015    2.252932
     13          6           0       -0.089895    2.837769   -0.577329
     14          8           0        1.369614    0.850877   -1.883961
     15          6           0        3.484688   -2.011470    0.258329
     16          1           0       -2.819774    1.620637    0.194237
     17          1           0       -1.764716   -3.199495   -0.299010
     18          1           0       -4.431886    0.111027   -0.892271
     19          1           0       -0.140293   -1.715015    0.793677
     20          1           0       -3.913365   -2.300204   -1.148643
     21          1           0       -0.931965    1.792032    1.744204
     22          1           0        1.387618    2.267866    0.846024
     23          1           0        3.573997   -0.511106   -1.280399
     24          1           0        2.143551   -1.589019   -1.366666
     25          1           0        1.152492   -0.059508    1.846959
     26          1           0       -0.633770    3.535812    0.067294
     27          1           0        0.640658    3.417508   -1.153044
     28          1           0       -0.795056    2.407671   -1.295756
     29          1           0        4.143225   -1.477645    0.951455
     30          1           0        4.073447   -2.753100   -0.288586
     31          1           0        2.737038   -2.531402    0.866568
 ---------------------------------------------------------------------

 SCF Done:  E(RwB97XD) =  -692.447143095     A.U. after   16 cycles

      1  C    Isotropic =    69.9112   Anisotropy =   165.3734

      2  C    Isotropic =    69.5933   Anisotropy =   175.5880

      3  C    Isotropic =    71.3508   Anisotropy =   173.5428

      4  C    Isotropic =    54.9731   Anisotropy =   179.5871

      5  C    Isotropic =    73.0120   Anisotropy =   179.3963

      6  C    Isotropic =    71.6986   Anisotropy =   174.9608

      7  C    Isotropic =   120.5083   Anisotropy =    42.8159

      8  C    Isotropic =   149.3249   Anisotropy =    12.3226

      9  C    Isotropic =    20.1742   Anisotropy =    93.3475

     10  O    Isotropic =   130.8833   Anisotropy =   174.2593

     11  C    Isotropic =   135.9328   Anisotropy =    60.1233

     12  O    Isotropic =   277.7808   Anisotropy =    46.6178

     13  C    Isotropic =   180.9920   Anisotropy =    19.0044

     14  O    Isotropic =   -61.7298   Anisotropy =   572.8505

     15  C    Isotropic =   182.1616   Anisotropy =    23.1598

     16  H    Isotropic =    23.9045   Anisotropy =     8.5914

     17  H    Isotropic =    23.7282   Anisotropy =     5.6706

     18  H    Isotropic =    23.8423   Anisotropy =     4.8228

     19  H    Isotropic =    23.6549   Anisotropy =     8.8035

     20  H    Isotropic =    23.8597   Anisotropy =     4.0810

     21  H    Isotropic =    26.7844   Anisotropy =     5.8663

     22  H    Isotropic =    28.4195   Anisotropy =     5.5328

     23  H    Isotropic =    27.4941   Anisotropy =     7.7857

     24  H    Isotropic =    27.5135   Anisotropy =     5.6279

     25  H    Isotropic =    26.7753   Anisotropy =    18.9750

     26  H    Isotropic =    30.6229   Anisotropy =     9.8469

     27  H    Isotropic =    30.4189   Anisotropy =    10.8968

     28  H    Isotropic =    30.4815   Anisotropy =     6.4103

     29  H    Isotropic =    30.1256   Anisotropy =     8.5587

     30  H    Isotropic =    30.2834   Anisotropy =    11.2789

     31  H    Isotropic =    30.0836   Anisotropy =     7.0056

 The electronic state is 1-A.
 Alpha  occ. eigenvalues --  -19.33837 -19.28288 -19.27602 -10.44565 -10.36280
 Alpha  occ. eigenvalues --  -10.35500 -10.32371 -10.31551 -10.30701 -10.30668
 Alpha  occ. eigenvalues --  -10.30600 -10.30590 -10.30430 -10.29128 -10.28937
 Alpha  occ. eigenvalues --   -1.21901  -1.13335  -1.12393  -0.96182  -0.91484
 Alpha  occ. eigenvalues --   -0.87289  -0.85381  -0.84672  -0.77573  -0.76558
 Alpha  occ. eigenvalues --   -0.70865  -0.69986  -0.68010  -0.66308  -0.62275
 Alpha  occ. eigenvalues --   -0.60482  -0.59306  -0.57500  -0.57164  -0.55057
 Alpha  occ. eigenvalues --   -0.54208  -0.52065  -0.51420  -0.50775  -0.50280
 Alpha  occ. eigenvalues --   -0.49397  -0.48227  -0.47288  -0.45986  -0.44980
 Alpha  occ. eigenvalues --   -0.44748  -0.44313  -0.44218  -0.42343  -0.42143
 Alpha  occ. eigenvalues --   -0.41372  -0.39609  -0.37161  -0.36478  -0.33191
 Alpha  occ. eigenvalues --   -0.32472
 Alpha virt. eigenvalues --    0.05018   0.05113   0.06402   0.07003   0.07858
 Alpha virt. eigenvalues --    0.08080   0.08528   0.09589   0.09721   0.10087
 Alpha virt. eigenvalues --    0.10794   0.11314   0.11759   0.12250   0.12367

 Mulliken atomic charges:
              1
     1  C   -0.100058
     2  C   -0.335149
     3  C   -0.283023
     4  C   -0.162427
     5  C    0.208761
     6  C   -0.114151
     7  C   -0.102208
     8  C    0.216679
     9  C   -0.041561
    10  O   -0.341325
    11  C    0.114282
    12  O   -0.503680
    13  C   -0.563983
    14  O   -0.451017
    15  C   -0.659155
    16  H    0.176643
    17  H    0.182588
    18  H    0.184363
    19  H    0.165651
    20  H    0.182388
    21  H    0.166505
    22  H    0.219633
    23  H    0.182348
    24  H    0.181066
    25  H    0.402959
    26  H    0.170101
    27  H    0.177311
    28  H    0.187460
    29  H    0.178464
    30  H    0.184117
    31  H    0.176419
 Sum of Mulliken atomic charges =   0.00000

 Dipole moment (field-independent basis, Debye):
    X=              1.2628    Y=             -0.5412    Z=             -0.3005  Tot=              1.4064
 Quadrupole moment (field-independent basis, Debye-Ang):
   XX=            -76.6445   YY=            -77.5567   ZZ=           -106.7943
   XY=             -6.0140   XZ=              4.5985   YZ=              4.7570

 Normal termination of Gaussian 09 at Tue May 17 21:58:48 2022.
