 Gaussian 09, Revision C.01,
 Gaussian 09:  EM64L-G09RevC.01 23-Sep-2011

 ----------------------------------------------------------------
 # wb97xd/6-31+g** scrf=(pcm,solvent=chloroform,smd,dovacuum) nmr
 ----------------------------------------------------------------

 99/9=1/99;
 -------
 comment
 -------
 Charge =  0 Multiplicity = 1

                         Standard orientation:
 ---------------------------------------------------------------------
 Center     Atomic      Atomic             Coordinates (Angstroms)
 Number     Number       Type             X           Y           Z
 ---------------------------------------------------------------------
      1          6           0        2.622171   -0.712694    0.012110
      2          6           0        2.089850    2.021451   -0.077176
      3          6           0        3.580050    0.171262   -0.488520
      4          6           0        1.383792   -0.240915    0.475033
      5          6           0        1.132042    1.138865    0.424704
      6          6           0        3.313443    1.537541   -0.533233
      7          6           0        0.354035   -1.212924    1.016079
      8          6           0       -0.731040   -1.690211    0.038784
      9          6           0       -1.517904   -0.543862   -0.566828
     10          8           0       -2.523015   -0.160499    0.270139
     11          6           0       -3.389152    0.875448   -0.214039
     12          8           0       -0.248599   -0.685882    2.202365
     13          6           0       -0.165523   -2.574038   -1.075571
     14          8           0       -1.306545   -0.053817   -1.668731
     15          6           0       -2.803993    2.242169    0.086538
     16          1           0        2.851149   -1.776177    0.033455
     17          1           0        1.877160    3.086639   -0.117483
     18          1           0        4.533490   -0.207086   -0.848205
     19          1           0        0.181560    1.537436    0.773363
     20          1           0        4.056901    2.224898   -0.928072
     21          1           0        0.894314   -2.102364    1.366573
     22          1           0       -1.454208   -2.306501    0.591489
     23          1           0       -4.343406    0.762337    0.310883
     24          1           0       -3.595135    0.753091   -1.283604
     25          1           0        0.443033   -0.196005    2.681506
     26          1           0        0.364341   -3.436601   -0.658379
     27          1           0       -0.972786   -2.952209   -1.712962
     28          1           0        0.527149   -2.026278   -1.723005
     29          1           0       -2.573948    2.337659    1.152691
     30          1           0       -3.503278    3.033700   -0.197388
     31          1           0       -1.867686    2.396482   -0.458335
 ---------------------------------------------------------------------

 SCF Done:  E(RwB97XD) =  -692.443166819     A.U. after   16 cycles

      1  C    Isotropic =    69.4659   Anisotropy =   163.8942

      2  C    Isotropic =    69.7645   Anisotropy =   176.3686

      3  C    Isotropic =    71.1023   Anisotropy =   174.1377

      4  C    Isotropic =    54.8240   Anisotropy =   180.2717

      5  C    Isotropic =    72.1857   Anisotropy =   182.0049

      6  C    Isotropic =    70.6986   Anisotropy =   176.2627

      7  C    Isotropic =   119.0211   Anisotropy =    36.3083

      8  C    Isotropic =   151.6146   Anisotropy =    20.3639

      9  C    Isotropic =    20.1418   Anisotropy =    99.2011

     10  O    Isotropic =   119.5715   Anisotropy =   163.8038

     11  C    Isotropic =   136.9877   Anisotropy =    65.9232

     12  O    Isotropic =   276.1966   Anisotropy =    83.6571

     13  C    Isotropic =   181.1283   Anisotropy =    21.6734

     14  O    Isotropic =   -47.8331   Anisotropy =   582.0850

     15  C    Isotropic =   180.7827   Anisotropy =    23.8853

     16  H    Isotropic =    23.8535   Anisotropy =     8.0376

     17  H    Isotropic =    23.7708   Anisotropy =     5.8197

     18  H    Isotropic =    23.8082   Anisotropy =     4.6602

     19  H    Isotropic =    23.5605   Anisotropy =     7.8467

     20  H    Isotropic =    23.7958   Anisotropy =     4.0813

     21  H    Isotropic =    26.6080   Anisotropy =     6.1454

     22  H    Isotropic =    28.2889   Anisotropy =     5.4695

     23  H    Isotropic =    27.6624   Anisotropy =     8.6687

     24  H    Isotropic =    26.9103   Anisotropy =     6.9238

     25  H    Isotropic =    29.9012   Anisotropy =    14.7696

     26  H    Isotropic =    30.7496   Anisotropy =    10.2765

     27  H    Isotropic =    30.6104   Anisotropy =    10.9934

     28  H    Isotropic =    30.6570   Anisotropy =     5.6030

     29  H    Isotropic =    30.1784   Anisotropy =     6.6463

     30  H    Isotropic =    30.5101   Anisotropy =    11.6635

     31  H    Isotropic =    29.9202   Anisotropy =     6.4451

 The electronic state is 1-A.
 Alpha  occ. eigenvalues --  -19.32288 -19.28011 -19.27258 -10.43662 -10.36276
 Alpha  occ. eigenvalues --  -10.34787 -10.31962 -10.31694 -10.30888 -10.30799
 Alpha  occ. eigenvalues --  -10.30734 -10.30711 -10.30607 -10.28897 -10.28480
 Alpha  occ. eigenvalues --   -1.20530  -1.12900  -1.12078  -0.96316  -0.91268
 Alpha  occ. eigenvalues --   -0.86616  -0.85119  -0.84845  -0.77658  -0.76333
 Alpha  occ. eigenvalues --   -0.71047  -0.70164  -0.68135  -0.63881  -0.62210
 Alpha  occ. eigenvalues --   -0.59656  -0.58298  -0.57748  -0.56268  -0.55139
 Alpha  occ. eigenvalues --   -0.53247  -0.53122  -0.52668  -0.50713  -0.49845
 Alpha  occ. eigenvalues --   -0.48589  -0.46841  -0.46573  -0.46108  -0.45404
 Alpha  occ. eigenvalues --   -0.44733  -0.44123  -0.43968  -0.42333  -0.41600
 Alpha  occ. eigenvalues --   -0.40215  -0.38508  -0.37180  -0.35873  -0.33354
 Alpha  occ. eigenvalues --   -0.32521
 Alpha virt. eigenvalues --    0.04766   0.05082   0.06777   0.06873   0.07753
 Alpha virt. eigenvalues --    0.08227   0.08498   0.09289   0.09900   0.10474
 Alpha virt. eigenvalues --    0.10889   0.11569   0.11606   0.11999   0.13320

 Mulliken atomic charges:
              1
     1  C   -0.064130
     2  C   -0.302341
     3  C   -0.253645
     4  C    0.025962
     5  C   -0.194203
     6  C   -0.149700
     7  C    0.128729
     8  C    0.174578
     9  C   -0.217980
    10  O   -0.192601
    11  C    0.024877
    12  O   -0.531677
    13  C   -0.577337
    14  O   -0.428105
    15  C   -0.495593
    16  H    0.178230
    17  H    0.184942
    18  H    0.185379
    19  H    0.176795
    20  H    0.183542
    21  H    0.151439
    22  H    0.193967
    23  H    0.171107
    24  H    0.176355
    25  H    0.387188
    26  H    0.170766
    27  H    0.176927
    28  H    0.188163
    29  H    0.173773
    30  H    0.176206
    31  H    0.178384
 Sum of Mulliken atomic charges =   0.00000

 Dipole moment (field-independent basis, Debye):
    X=              1.0371    Y=             -0.0402    Z=              1.1656  Tot=              1.5607
 Quadrupole moment (field-independent basis, Debye-Ang):
   XX=            -77.0793   YY=            -78.3749   ZZ=            -98.5738
   XY=             -4.0802   XZ=              0.6613   YZ=              2.0828

 Normal termination of Gaussian 09 at Tue May 17 18:45:37 2022.
