 Gaussian 09, Revision C.01,
 Gaussian 09:  EM64L-G09RevC.01 23-Sep-2011

 ----------------------------------------------------------------
 # wb97xd/6-31+g** scrf=(pcm,solvent=chloroform,smd,dovacuum) nmr
 ----------------------------------------------------------------

 99/9=1/99;
 -------
 comment
 -------
 Charge =  0 Multiplicity = 1

                         Standard orientation:
 ---------------------------------------------------------------------
 Center     Atomic      Atomic             Coordinates (Angstroms)
 Number     Number       Type             X           Y           Z
 ---------------------------------------------------------------------
      1          6           0       -1.583185    0.151178    1.254689
      2          6           0       -2.908851    0.292094   -1.195185
      3          6           0       -2.629730    1.057287    1.075952
      4          6           0       -1.188192   -0.696811    0.209538
      5          6           0       -1.862157   -0.613817   -1.019090
      6          6           0       -3.292270    1.126887   -0.147770
      7          6           0       -0.034815   -1.663802    0.406877
      8          6           0        1.228624   -1.258439   -0.364002
      9          6           0        1.716427    0.071812    0.161637
     10          8           0        1.841779    0.965956   -0.857869
     11          6           0        2.253546    2.288346   -0.484288
     12          8           0       -0.456682   -2.967700   -0.011917
     13          6           0        2.353745   -2.282962   -0.224110
     14          8           0        1.964033    0.301507    1.338597
     15          6           0        1.049440    3.112812   -0.068174
     16          1           0       -1.069523    0.120860    2.214360
     17          1           0       -3.423721    0.347662   -2.150909
     18          1           0       -2.925035    1.712295    1.891774
     19          1           0       -1.571815   -1.257949   -1.847399
     20          1           0       -4.106214    1.833830   -0.285829
     21          1           0        0.187916   -1.748788    1.478001
     22          1           0        0.997933   -1.167796   -1.433382
     23          1           0        2.720367    2.738658   -1.366379
     24          1           0        3.014356    2.260788    0.304127
     25          1           0       -1.384444   -3.067461    0.266668
     26          1           0        2.075336   -3.241042   -0.674362
     27          1           0        3.263505   -1.930195   -0.722581
     28          1           0        2.603572   -2.459814    0.827973
     29          1           0        0.293173    3.116945   -0.860031
     30          1           0        1.341731    4.144317    0.147569
     31          1           0        0.574319    2.692069    0.823473
 ---------------------------------------------------------------------

 SCF Done:  E(RwB97XD) =  -692.446634229     A.U. after   16 cycles

      1  C    Isotropic =    69.1522   Anisotropy =   163.7203

      2  C    Isotropic =    69.6028   Anisotropy =   177.6618

      3  C    Isotropic =    70.5790   Anisotropy =   176.2581

      4  C    Isotropic =    52.4024   Anisotropy =   186.1603

      5  C    Isotropic =    71.9172   Anisotropy =   179.4480

      6  C    Isotropic =    71.1484   Anisotropy =   177.9544

      7  C    Isotropic =   118.8425   Anisotropy =    28.1145

      8  C    Isotropic =   147.2057   Anisotropy =    24.7278

      9  C    Isotropic =    19.7664   Anisotropy =   103.0961

     10  O    Isotropic =   123.3896   Anisotropy =   145.3286

     11  C    Isotropic =   138.4600   Anisotropy =    65.2214

     12  O    Isotropic =   274.6628   Anisotropy =    57.3982

     13  C    Isotropic =   180.3578   Anisotropy =    26.8656

     14  O    Isotropic =   -31.9009   Anisotropy =   564.9285

     15  C    Isotropic =   182.1481   Anisotropy =    24.2974

     16  H    Isotropic =    23.9172   Anisotropy =     7.0498

     17  H    Isotropic =    23.6501   Anisotropy =     4.7564

     18  H    Isotropic =    23.9032   Anisotropy =     4.5663

     19  H    Isotropic =    23.3908   Anisotropy =     9.0523

     20  H    Isotropic =    23.7792   Anisotropy =     3.9487

     21  H    Isotropic =    26.6744   Anisotropy =     5.6787

     22  H    Isotropic =    28.5065   Anisotropy =     4.3129

     23  H    Isotropic =    28.1470   Anisotropy =     9.2398

     24  H    Isotropic =    27.2134   Anisotropy =     7.1514

     25  H    Isotropic =    29.9838   Anisotropy =    14.5502

     26  H    Isotropic =    29.8747   Anisotropy =     9.2234

     27  H    Isotropic =    30.4786   Anisotropy =     9.8412

     28  H    Isotropic =    30.3505   Anisotropy =     8.6082

     29  H    Isotropic =    31.5037   Anisotropy =     6.3621

     30  H    Isotropic =    31.0583   Anisotropy =    11.8490

     31  H    Isotropic =    31.1187   Anisotropy =     6.3379

 The electronic state is 1-A.
 Alpha  occ. eigenvalues --  -19.32943 -19.28161 -19.27658 -10.44133 -10.35978
 Alpha  occ. eigenvalues --  -10.34988 -10.31823 -10.31558 -10.30875 -10.30829
 Alpha  occ. eigenvalues --  -10.30796 -10.30729 -10.30665 -10.28963 -10.28592
 Alpha  occ. eigenvalues --   -1.21042  -1.12995  -1.12577  -0.96347  -0.91476
 Alpha  occ. eigenvalues --   -0.86673  -0.85353  -0.84874  -0.77780  -0.76320
 Alpha  occ. eigenvalues --   -0.70794  -0.70086  -0.68251  -0.64290  -0.62339
 Alpha  occ. eigenvalues --   -0.60946  -0.58206  -0.57106  -0.55823  -0.55491
 Alpha  occ. eigenvalues --   -0.53479  -0.52770  -0.52410  -0.50925  -0.50439
 Alpha  occ. eigenvalues --   -0.49072  -0.47889  -0.46408  -0.46266  -0.45610
 Alpha  occ. eigenvalues --   -0.44948  -0.44321  -0.43417  -0.42406  -0.41783
 Alpha  occ. eigenvalues --   -0.40047  -0.38932  -0.37446  -0.36141  -0.33426
 Alpha  occ. eigenvalues --   -0.32617
 Alpha virt. eigenvalues --    0.04579   0.05238   0.06418   0.07175   0.07588
 Alpha virt. eigenvalues --    0.08132   0.08535   0.09362   0.09912   0.10029
 Alpha virt. eigenvalues --    0.10684   0.11147   0.11952   0.12226   0.12935

 Mulliken atomic charges:
              1
     1  C   -0.045986
     2  C   -0.184209
     3  C   -0.257863
     4  C   -0.470454
     5  C    0.004567
     6  C   -0.146940
     7  C    0.223079
     8  C    0.252424
     9  C   -0.197172
    10  O   -0.202968
    11  C   -0.008787
    12  O   -0.549944
    13  C   -0.590498
    14  O   -0.435199
    15  C   -0.491361
    16  H    0.176660
    17  H    0.185372
    18  H    0.182561
    19  H    0.183768
    20  H    0.182640
    21  H    0.161778
    22  H    0.198370
    23  H    0.174212
    24  H    0.179914
    25  H    0.398780
    26  H    0.187770
    27  H    0.176411
    28  H    0.181040
    29  H    0.175412
    30  H    0.176789
    31  H    0.179833
 Sum of Mulliken atomic charges =   0.00000

 Dipole moment (field-independent basis, Debye):
    X=             -1.4724    Y=              2.0121    Z=             -1.3109  Tot=              2.8169
 Quadrupole moment (field-independent basis, Debye-Ang):
   XX=            -83.6342   YY=            -86.6655   ZZ=            -89.7392
   XY=              1.6749   XZ=             -4.0205   YZ=             -1.2068

 Normal termination of Gaussian 09 at Tue May 17 15:05:06 2022.
