 Gaussian 09, Revision C.01,
 Gaussian 09:  EM64L-G09RevC.01 23-Sep-2011

 ----------------------------------------------------------------
 # wb97xd/6-31+g** scrf=(pcm,solvent=chloroform,smd,dovacuum) nmr
 ----------------------------------------------------------------

 99/9=1/99;
 -------
 comment
 -------
 Charge =  0 Multiplicity = 1

                         Standard orientation:
 ---------------------------------------------------------------------
 Center     Atomic      Atomic             Coordinates (Angstroms)
 Number     Number       Type             X           Y           Z
 ---------------------------------------------------------------------
      1          6           0        2.357157    1.255382   -0.573545
      2          6           0        4.052542   -0.620207    0.598315
      3          6           0        3.660005    1.613489   -0.220695
      4          6           0        1.883412   -0.047462   -0.345159
      5          6           0        2.750013   -0.979132    0.245996
      6          6           0        4.506810    0.675752    0.365607
      7          6           0        0.454800   -0.404549   -0.717876
      8          6           0       -0.554295    0.072100    0.344978
      9          6           0       -1.936358    0.042962   -0.268019
     10          8           0       -2.730396    0.988002    0.306907
     11          6           0       -4.083988    1.044875   -0.167687
     12          8           0        0.346034   -1.813573   -0.937475
     13          6           0       -0.569829   -0.771634    1.617997
     14          8           0       -2.286486   -0.739861   -1.142822
     15          6           0       -4.948146    0.063118    0.601048
     16          1           0        1.713216    2.002277   -1.032601
     17          1           0        4.711721   -1.355650    1.051850
     18          1           0        4.015045    2.623934   -0.405532
     19          1           0        2.412246   -1.997077    0.432078
     20          1           0        5.521494    0.952984    0.638268
     21          1           0        0.243522    0.070474   -1.685494
     22          1           0       -0.332496    1.116372    0.601740
     23          1           0       -4.135020    0.865205   -1.247660
     24          1           0       -4.441347    2.065087    0.006235
     25          1           0       -0.541075   -1.961181   -1.322053
     26          1           0        0.403239   -0.757133    2.117591
     27          1           0       -1.310935   -0.386292    2.327420
     28          1           0       -0.836516   -1.813738    1.411090
     29          1           0       -4.609725   -0.965788    0.443107
     30          1           0       -5.993380    0.138894    0.288391
     31          1           0       -4.885924    0.256930    1.676931
 ---------------------------------------------------------------------

 SCF Done:  E(RwB97XD) =  -692.447063872     A.U. after   16 cycles

      1  C    Isotropic =    71.4996   Anisotropy =   164.6798

      2  C    Isotropic =    70.6369   Anisotropy =   176.2801

      3  C    Isotropic =    70.8500   Anisotropy =   175.2574

      4  C    Isotropic =    53.6380   Anisotropy =   181.0935

      5  C    Isotropic =    72.0796   Anisotropy =   181.1682

      6  C    Isotropic =    72.8854   Anisotropy =   175.5433

      7  C    Isotropic =   122.5458   Anisotropy =    38.5632

      8  C    Isotropic =   147.8306   Anisotropy =    34.7444

      9  C    Isotropic =    14.7988   Anisotropy =   107.7018

     10  O    Isotropic =   131.5189   Anisotropy =   149.1446

     11  C    Isotropic =   137.4917   Anisotropy =    65.9930

     12  O    Isotropic =   303.8820   Anisotropy =    70.1410

     13  C    Isotropic =   186.7192   Anisotropy =    18.0794

     14  O    Isotropic =   -20.3155   Anisotropy =   526.3355

     15  C    Isotropic =   181.5904   Anisotropy =    25.6445

     16  H    Isotropic =    23.9805   Anisotropy =     8.6052

     17  H    Isotropic =    23.7108   Anisotropy =     5.0647

     18  H    Isotropic =    23.7368   Anisotropy =     4.9066

     19  H    Isotropic =    23.4512   Anisotropy =    10.2008

     20  H    Isotropic =    23.8160   Anisotropy =     4.0945

     21  H    Isotropic =    26.2443   Anisotropy =     6.0247

     22  H    Isotropic =    29.0046   Anisotropy =     5.2466

     23  H    Isotropic =    26.8498   Anisotropy =     6.0393

     24  H    Isotropic =    27.7642   Anisotropy =     8.2057

     25  H    Isotropic =    27.6802   Anisotropy =    20.2952

     26  H    Isotropic =    30.6210   Anisotropy =     8.6877

     27  H    Isotropic =    30.6990   Anisotropy =     9.8521

     28  H    Isotropic =    30.0890   Anisotropy =     7.2457

     29  H    Isotropic =    30.2723   Anisotropy =     6.0745

     30  H    Isotropic =    30.6125   Anisotropy =    11.4873

     31  H    Isotropic =    30.4295   Anisotropy =     8.1733

 The electronic state is 1-A.
 Alpha  occ. eigenvalues --  -19.33271 -19.28446 -19.27478 -10.44544 -10.35861
 Alpha  occ. eigenvalues --  -10.35273 -10.31940 -10.31541 -10.30641 -10.30543
 Alpha  occ. eigenvalues --  -10.30446 -10.30330 -10.30306 -10.29238 -10.28833
 Alpha  occ. eigenvalues --   -1.21531  -1.13632  -1.12006  -0.96061  -0.91402
 Alpha  occ. eigenvalues --   -0.86944  -0.85139  -0.84523  -0.77935  -0.76369
 Alpha  occ. eigenvalues --   -0.71669  -0.69873  -0.66958  -0.64999  -0.61044
 Alpha  occ. eigenvalues --   -0.59800  -0.59434  -0.58486  -0.56279  -0.54908
 Alpha  occ. eigenvalues --   -0.54172  -0.52943  -0.52218  -0.50221  -0.50109
 Alpha  occ. eigenvalues --   -0.49153  -0.48594  -0.46469  -0.46361  -0.45609
 Alpha  occ. eigenvalues --   -0.44935  -0.44322  -0.43102  -0.42158  -0.42059
 Alpha  occ. eigenvalues --   -0.40983  -0.39095  -0.37021  -0.36299  -0.33071
 Alpha  occ. eigenvalues --   -0.32255
 Alpha virt. eigenvalues --    0.05189   0.05590   0.06288   0.06735   0.08023
 Alpha virt. eigenvalues --    0.08078   0.08959   0.09318   0.09578   0.10591
 Alpha virt. eigenvalues --    0.10748   0.11195   0.11297   0.11436   0.12867

 Mulliken atomic charges:
              1
     1  C   -0.113122
     2  C   -0.278365
     3  C   -0.280598
     4  C   -0.200394
     5  C    0.093166
     6  C   -0.156650
     7  C    0.074008
     8  C   -0.059033
     9  C    0.281348
    10  O   -0.270085
    11  C   -0.049883
    12  O   -0.586787
    13  C   -0.565494
    14  O   -0.528391
    15  C   -0.480215
    16  H    0.175283
    17  H    0.183794
    18  H    0.183390
    19  H    0.185783
    20  H    0.181095
    21  H    0.159386
    22  H    0.199956
    23  H    0.180990
    24  H    0.176075
    25  H    0.406101
    26  H    0.186606
    27  H    0.178153
    28  H    0.189744
    29  H    0.180215
    30  H    0.178894
    31  H    0.175028
 Sum of Mulliken atomic charges =   0.00000

 Dipole moment (field-independent basis, Debye):
    X=             -2.1964    Y=              3.0514    Z=              1.5103  Tot=              4.0517
 Quadrupole moment (field-independent basis, Debye-Ang):
   XX=            -74.8320   YY=            -89.1340   ZZ=            -92.6971
   XY=             -1.2144   XZ=              1.7478   YZ=             -6.1513

 Normal termination of Gaussian 09 at Tue May 17 15:37:39 2022.
