 Gaussian 09, Revision C.01,
 Gaussian 09:  EM64L-G09RevC.01 23-Sep-2011

 ----------------------------------------------------------------
 # wb97xd/6-31+g** scrf=(pcm,solvent=chloroform,smd,dovacuum) nmr
 ----------------------------------------------------------------

 99/9=1/99;
 -------
 comment
 -------
 Charge =  0 Multiplicity = 1

                         Standard orientation:
 ---------------------------------------------------------------------
 Center     Atomic      Atomic             Coordinates (Angstroms)
 Number     Number       Type             X           Y           Z
 ---------------------------------------------------------------------
      1          6           0        1.581176   -0.571559    1.238757
      2          6           0        2.903430   -1.165204   -1.142965
      3          6           0        2.319213   -1.751040    1.122881
      4          6           0        1.495534    0.327648    0.164030
      5          6           0        2.164774    0.013702   -1.028936
      6          6           0        2.979757   -2.047344   -0.067446
      7          6           0        0.659771    1.587985    0.291170
      8          6           0       -0.713516    1.443082   -0.382263
      9          6           0       -1.529430    0.422439    0.376959
     10          8           0       -2.019854   -0.523366   -0.469828
     11          6           0       -2.782838   -1.551311    0.172195
     12          8           0        1.389254    2.663562   -0.311255
     13          6           0       -1.496625    2.755023   -0.418857
     14          8           0       -1.733869    0.462566    1.583937
     15          6           0       -3.218195   -2.547235   -0.884735
     16          1           0        1.067454   -0.361436    2.175360
     17          1           0        3.421161   -1.391941   -2.071131
     18          1           0        2.378338   -2.438373    1.962723
     19          1           0        2.117929    0.697240   -1.874632
     20          1           0        3.556137   -2.964219   -0.156349
     21          1           0        0.553126    1.837357    1.355021
     22          1           0       -0.582714    1.107559   -1.419449
     23          1           0       -3.663934   -1.110785    0.651882
     24          1           0       -2.166010   -2.056283    0.924150
     25          1           0        1.138413    3.476983    0.157874
     26          1           0       -0.998952    3.495921   -1.052514
     27          1           0       -2.503734    2.595587   -0.820098
     28          1           0       -1.606270    3.181258    0.584560
     29          1           0       -3.818808   -2.053379   -1.655746
     30          1           0       -3.807333   -3.354645   -0.441056
     31          1           0       -2.347352   -2.980065   -1.388173
 ---------------------------------------------------------------------

 SCF Done:  E(RwB97XD) =  -692.446151576     A.U. after   16 cycles

      1  C    Isotropic =    70.9309   Anisotropy =   163.4244

      2  C    Isotropic =    69.4335   Anisotropy =   176.1942

      3  C    Isotropic =    70.3823   Anisotropy =   173.5515

      4  C    Isotropic =    52.3164   Anisotropy =   184.4024

      5  C    Isotropic =    73.4832   Anisotropy =   182.0249

      6  C    Isotropic =    72.1879   Anisotropy =   176.5632

      7  C    Isotropic =   119.6606   Anisotropy =    29.7187

      8  C    Isotropic =   144.1815   Anisotropy =    27.9006

      9  C    Isotropic =    18.4794   Anisotropy =   104.8946

     10  O    Isotropic =   125.4265   Anisotropy =   173.2059

     11  C    Isotropic =   137.2380   Anisotropy =    58.6298

     12  O    Isotropic =   297.2996   Anisotropy =    47.4467

     13  C    Isotropic =   180.3435   Anisotropy =    27.0771

     14  O    Isotropic =   -39.0321   Anisotropy =   563.0193

     15  C    Isotropic =   182.8345   Anisotropy =    23.4065

     16  H    Isotropic =    24.0175   Anisotropy =     7.8541

     17  H    Isotropic =    23.6984   Anisotropy =     4.7469

     18  H    Isotropic =    23.9321   Anisotropy =     4.8230

     19  H    Isotropic =    23.4040   Anisotropy =     9.5031

     20  H    Isotropic =    23.8368   Anisotropy =     3.9794

     21  H    Isotropic =    26.7188   Anisotropy =     6.3039

     22  H    Isotropic =    28.6838   Anisotropy =     3.6537

     23  H    Isotropic =    27.7357   Anisotropy =     7.0926

     24  H    Isotropic =    28.0473   Anisotropy =     5.1584

     25  H    Isotropic =    29.0100   Anisotropy =    19.0127

     26  H    Isotropic =    30.0165   Anisotropy =     9.0048

     27  H    Isotropic =    30.4487   Anisotropy =     9.4830

     28  H    Isotropic =    30.4632   Anisotropy =     8.5210

     29  H    Isotropic =    30.5552   Anisotropy =     8.9181

     30  H    Isotropic =    30.6517   Anisotropy =    11.1250

     31  H    Isotropic =    30.7900   Anisotropy =     7.3452

 The electronic state is 1-A.
 Alpha  occ. eigenvalues --  -19.32981 -19.28297 -19.27706 -10.43998 -10.36047
 Alpha  occ. eigenvalues --  -10.34988 -10.31618 -10.31438 -10.30584 -10.30545
 Alpha  occ. eigenvalues --  -10.30496 -10.30482 -10.30386 -10.29282 -10.28791
 Alpha  occ. eigenvalues --   -1.21179  -1.13105  -1.12617  -0.96128  -0.91375
 Alpha  occ. eigenvalues --   -0.86914  -0.85451  -0.84581  -0.77949  -0.75606
 Alpha  occ. eigenvalues --   -0.70313  -0.70137  -0.67516  -0.65235  -0.61980
 Alpha  occ. eigenvalues --   -0.60423  -0.59265  -0.57976  -0.56890  -0.54726
 Alpha  occ. eigenvalues --   -0.53509  -0.52627  -0.51624  -0.50606  -0.50153
 Alpha  occ. eigenvalues --   -0.49257  -0.47697  -0.47061  -0.45701  -0.44887
 Alpha  occ. eigenvalues --   -0.44318  -0.43885  -0.43661  -0.43244  -0.42194
 Alpha  occ. eigenvalues --   -0.40515  -0.38981  -0.37330  -0.35945  -0.33129
 Alpha  occ. eigenvalues --   -0.32591
 Alpha virt. eigenvalues --    0.05018   0.05513   0.06348   0.07080   0.07763
 Alpha virt. eigenvalues --    0.08310   0.08639   0.09506   0.09899   0.10354
 Alpha virt. eigenvalues --    0.10800   0.11054   0.11222   0.11906   0.12768

 Mulliken atomic charges:
              1
     1  C   -0.132527
     2  C   -0.183179
     3  C   -0.255791
     4  C   -0.095156
     5  C    0.089767
     6  C   -0.188961
     7  C   -0.095808
     8  C    0.269112
     9  C   -0.196037
    10  O   -0.226501
    11  C    0.144362
    12  O   -0.567073
    13  C   -0.594081
    14  O   -0.437634
    15  C   -0.650481
    16  H    0.173656
    17  H    0.184163
    18  H    0.182791
    19  H    0.181066
    20  H    0.181765
    21  H    0.170747
    22  H    0.199479
    23  H    0.176389
    24  H    0.177560
    25  H    0.404558
    26  H    0.186734
    27  H    0.181573
    28  H    0.184828
    29  H    0.176095
    30  H    0.180791
    31  H    0.177790
 Sum of Mulliken atomic charges =   0.00000

 Dipole moment (field-independent basis, Debye):
    X=             -1.6196    Y=             -0.4730    Z=             -0.7372  Tot=              1.8413
 Quadrupole moment (field-independent basis, Debye-Ang):
   XX=            -89.4992   YY=            -75.8019   ZZ=            -91.3243
   XY=             -2.1453   XZ=              3.2186   YZ=              0.2370

 Normal termination of Gaussian 09 at Tue May 17 16:23:31 2022.
