 Gaussian 09, Revision C.01,
 Gaussian 09:  EM64L-G09RevC.01 23-Sep-2011

 ----------------------------------------------------------------
 # wb97xd/6-31+g** scrf=(pcm,solvent=chloroform,smd,dovacuum) nmr
 ----------------------------------------------------------------

 99/9=1/99;
 -------
 comment
 -------
 Charge =  0 Multiplicity = 1

                         Standard orientation:
 ---------------------------------------------------------------------
 Center     Atomic      Atomic             Coordinates (Angstroms)
 Number     Number       Type             X           Y           Z
 ---------------------------------------------------------------------
      1          6           0        2.407350    1.008587   -0.837576
      2          6           0        3.903134   -1.030823    0.332609
      3          6           0        3.797099    1.117946   -0.756533
      4          6           0        1.745647   -0.124411   -0.335151
      5          6           0        2.513521   -1.140981    0.252529
      6          6           0        4.544265    0.098367   -0.171402
      7          6           0        0.231387   -0.206030   -0.413912
      8          6           0       -0.440734    0.566033    0.736187
      9          6           0       -1.840410    0.958269    0.318405
     10          8           0       -2.573443   -0.132775   -0.045786
     11          6           0       -3.922647    0.166133   -0.429246
     12          8           0       -0.172527   -1.578200   -0.433758
     13          6           0       -0.492529   -0.181543    2.066958
     14          8           0       -2.254353    2.109939    0.317873
     15          6           0       -4.604002   -1.135281   -0.804107
     16          1           0        1.842683    1.816966   -1.297483
     17          1           0        4.483514   -1.829324    0.787181
     18          1           0        4.296684    1.999007   -1.150830
     19          1           0        2.029253   -2.031413    0.649003
     20          1           0        5.625910    0.182300   -0.109619
     21          1           0       -0.070547    0.211128   -1.383813
     22          1           0        0.093407    1.512557    0.896744
     23          1           0       -3.920402    0.844373   -1.289774
     24          1           0       -4.450263    0.632951    0.409921
     25          1           0       -1.142859   -1.586354   -0.527397
     26          1           0        0.513738   -0.405043    2.433773
     27          1           0       -0.997693    0.424917    2.827206
     28          1           0       -1.045885   -1.123375    1.989015
     29          1           0       -4.072984   -1.624974   -1.627144
     30          1           0       -5.640334   -0.960508   -1.106213
     31          1           0       -4.594141   -1.832503    0.040232
 ---------------------------------------------------------------------

 SCF Done:  E(RwB97XD) =  -692.445599548     A.U. after   16 cycles

      1  C    Isotropic =    71.7654   Anisotropy =   166.2376

      2  C    Isotropic =    70.4224   Anisotropy =   174.5463

      3  C    Isotropic =    70.3120   Anisotropy =   173.9446

      4  C    Isotropic =    53.6495   Anisotropy =   179.6363

      5  C    Isotropic =    73.1587   Anisotropy =   182.2918

      6  C    Isotropic =    72.8271   Anisotropy =   176.3122

      7  C    Isotropic =   123.8146   Anisotropy =    41.9532

      8  C    Isotropic =   145.4986   Anisotropy =    26.6928

      9  C    Isotropic =    17.6894   Anisotropy =   102.7248

     10  O    Isotropic =   142.9524   Anisotropy =   155.0209

     11  C    Isotropic =   135.9744   Anisotropy =    61.0100

     12  O    Isotropic =   302.6137   Anisotropy =    71.9011

     13  C    Isotropic =   187.3188   Anisotropy =    16.0089

     14  O    Isotropic =   -51.2273   Anisotropy =   517.9470

     15  C    Isotropic =   182.3538   Anisotropy =    23.2376

     16  H    Isotropic =    23.8233   Anisotropy =     8.8522

     17  H    Isotropic =    23.7435   Anisotropy =     5.0780

     18  H    Isotropic =    23.7734   Anisotropy =     4.9337

     19  H    Isotropic =    23.3341   Anisotropy =    10.3915

     20  H    Isotropic =    23.7538   Anisotropy =     4.1995

     21  H    Isotropic =    26.4477   Anisotropy =     6.1638

     22  H    Isotropic =    28.9431   Anisotropy =     5.6173

     23  H    Isotropic =    27.3945   Anisotropy =     6.9085

     24  H    Isotropic =    27.4773   Anisotropy =     7.1025

     25  H    Isotropic =    28.2807   Anisotropy =    21.9494

     26  H    Isotropic =    30.5375   Anisotropy =     9.1533

     27  H    Isotropic =    30.7233   Anisotropy =    10.4622

     28  H    Isotropic =    30.0483   Anisotropy =     6.7208

     29  H    Isotropic =    30.2488   Anisotropy =     7.6204

     30  H    Isotropic =    30.2922   Anisotropy =    11.2215

     31  H    Isotropic =    30.2052   Anisotropy =     8.0838

 The electronic state is 1-A.
 Alpha  occ. eigenvalues --  -19.33782 -19.28022 -19.27843 -10.44261 -10.36256
 Alpha  occ. eigenvalues --  -10.35512 -10.31903 -10.31650 -10.30677 -10.30572
 Alpha  occ. eigenvalues --  -10.30499 -10.30409 -10.30352 -10.29198 -10.29135
 Alpha  occ. eigenvalues --   -1.21824  -1.13183  -1.12620  -0.96133  -0.91550
 Alpha  occ. eigenvalues --   -0.87283  -0.85323  -0.84573  -0.78204  -0.75706
 Alpha  occ. eigenvalues --   -0.71264  -0.69938  -0.67205  -0.66644  -0.60987
 Alpha  occ. eigenvalues --   -0.60010  -0.59194  -0.58495  -0.57562  -0.54834
 Alpha  occ. eigenvalues --   -0.53986  -0.52557  -0.51547  -0.50885  -0.50123
 Alpha  occ. eigenvalues --   -0.49571  -0.47885  -0.47010  -0.46550  -0.45118
 Alpha  occ. eigenvalues --   -0.44814  -0.44061  -0.43865  -0.42709  -0.42104
 Alpha  occ. eigenvalues --   -0.41026  -0.39595  -0.36926  -0.36265  -0.33133
 Alpha  occ. eigenvalues --   -0.32293
 Alpha virt. eigenvalues --    0.05026   0.05573   0.06387   0.07025   0.07925
 Alpha virt. eigenvalues --    0.08566   0.08668   0.09423   0.09765   0.10453
 Alpha virt. eigenvalues --    0.10613   0.11037   0.11538   0.11635   0.12672

 Mulliken atomic charges:
              1
     1  C   -0.107054
     2  C   -0.250289
     3  C   -0.243360
     4  C   -0.176082
     5  C   -0.072937
     6  C   -0.185610
     7  C    0.211523
     8  C    0.173834
     9  C    0.153059
    10  O   -0.349492
    11  C    0.063261
    12  O   -0.596887
    13  C   -0.602555
    14  O   -0.482047
    15  C   -0.663166
    16  H    0.177437
    17  H    0.183917
    18  H    0.184127
    19  H    0.185272
    20  H    0.181448
    21  H    0.157174
    22  H    0.198221
    23  H    0.178882
    24  H    0.180106
    25  H    0.416115
    26  H    0.183026
    27  H    0.179676
    28  H    0.184260
    29  H    0.176621
    30  H    0.183909
    31  H    0.177611
 Sum of Mulliken atomic charges =   0.00000

 Dipole moment (field-independent basis, Debye):
    X=             -1.6955    Y=             -0.7298    Z=             -0.1068  Tot=              1.8490
 Quadrupole moment (field-independent basis, Debye-Ang):
   XX=            -72.3161   YY=            -98.4154   ZZ=            -88.8282
   XY=              9.6114   XZ=              4.4149   YZ=             -5.2291

 Normal termination of Gaussian 09 at Tue May 17 17:30:48 2022.
