 Gaussian 09, Revision C.01,
 Gaussian 09:  EM64L-G09RevC.01 23-Sep-2011

 ----------------------------------------------------------------
 # wb97xd/6-31+g** scrf=(pcm,solvent=chloroform,smd,dovacuum) nmr
 ----------------------------------------------------------------

 99/9=1/99;
 -------
 comment
 -------
 Charge =  0 Multiplicity = 1

                         Standard orientation:
 ---------------------------------------------------------------------
 Center     Atomic      Atomic             Coordinates (Angstroms)
 Number     Number       Type             X           Y           Z
 ---------------------------------------------------------------------
      1          6           0        1.962532   -1.446109   -0.165142
      2          6           0        3.978049    0.460879    0.105949
      3          6           0        3.285502   -1.778667   -0.462143
      4          6           0        1.631134   -0.155695    0.277540
      5          6           0        2.655902    0.795142    0.403667
      6          6           0        4.292455   -0.825790   -0.325330
      7          6           0        0.181945    0.185263    0.581661
      8          6           0       -0.550870    0.765564   -0.640268
      9          6           0       -2.038850    0.514110   -0.482502
     10          8           0       -2.295403   -0.823790   -0.599688
     11          6           0       -3.673647   -1.207587   -0.481110
     12          8           0        0.111171    1.071889    1.699517
     13          6           0       -0.293656    2.254543   -0.880718
     14          8           0       -2.893390    1.372327   -0.312155
     15          6           0       -4.035600   -1.407815    0.978560
     16          1           0        1.190089   -2.203752   -0.283141
     17          1           0        4.762232    1.206865    0.207698
     18          1           0        3.530438   -2.781610   -0.802581
     19          1           0        2.428625    1.808263    0.731301
     20          1           0        5.322082   -1.084752   -0.558153
     21          1           0       -0.305570   -0.737449    0.920027
     22          1           0       -0.252140    0.232003   -1.553436
     23          1           0       -3.789238   -2.152784   -1.021569
     24          1           0       -4.334432   -0.478584   -0.963853
     25          1           0        0.759322    0.757435    2.354276
     26          1           0        0.763530    2.448588   -1.082428
     27          1           0       -0.862803    2.607001   -1.748627
     28          1           0       -0.599509    2.866115   -0.025152
     29          1           0       -3.366428   -2.139305    1.443460
     30          1           0       -5.066532   -1.758960    1.077941
     31          1           0       -3.928059   -0.475503    1.541867
 ---------------------------------------------------------------------

 SCF Done:  E(RwB97XD) =  -692.441898364     A.U. after   16 cycles

      1  C    Isotropic =    72.4516   Anisotropy =   165.4769

      2  C    Isotropic =    69.3649   Anisotropy =   174.1093

      3  C    Isotropic =    69.8142   Anisotropy =   173.5275

      4  C    Isotropic =    49.3547   Anisotropy =   184.7864

      5  C    Isotropic =    73.6193   Anisotropy =   178.3614

      6  C    Isotropic =    71.9681   Anisotropy =   176.3445

      7  C    Isotropic =   121.3972   Anisotropy =    36.8084

      8  C    Isotropic =   149.2997   Anisotropy =    19.9716

      9  C    Isotropic =    18.5267   Anisotropy =    97.3415

     10  O    Isotropic =   133.6422   Anisotropy =   146.3833

     11  C    Isotropic =   137.4776   Anisotropy =    65.7209

     12  O    Isotropic =   290.5709   Anisotropy =    79.9663

     13  C    Isotropic =   188.2622   Anisotropy =    10.2795

     14  O    Isotropic =   -46.9101   Anisotropy =   578.9011

     15  C    Isotropic =   181.5218   Anisotropy =    25.5836

     16  H    Isotropic =    23.7072   Anisotropy =     8.4074

     17  H    Isotropic =    23.6820   Anisotropy =     5.1870

     18  H    Isotropic =    23.8575   Anisotropy =     5.0011

     19  H    Isotropic =    23.2784   Anisotropy =    10.0380

     20  H    Isotropic =    23.7950   Anisotropy =     4.2468

     21  H    Isotropic =    26.1875   Anisotropy =     6.3168

     22  H    Isotropic =    28.9348   Anisotropy =     4.8403

     23  H    Isotropic =    27.6963   Anisotropy =     8.2860

     24  H    Isotropic =    26.7979   Anisotropy =     6.5061

     25  H    Isotropic =    30.0131   Anisotropy =    16.2351

     26  H    Isotropic =    30.5725   Anisotropy =     9.4532

     27  H    Isotropic =    30.7494   Anisotropy =    10.6963

     28  H    Isotropic =    29.8087   Anisotropy =     7.7361

     29  H    Isotropic =    30.3708   Anisotropy =     7.6506

     30  H    Isotropic =    30.5333   Anisotropy =    11.6064

     31  H    Isotropic =    30.1954   Anisotropy =     6.0187

 The electronic state is 1-A.
 Alpha  occ. eigenvalues --  -19.32545 -19.28283 -19.27512 -10.43815 -10.36266
 Alpha  occ. eigenvalues --  -10.34944 -10.32102 -10.31661 -10.30851 -10.30810
 Alpha  occ. eigenvalues --  -10.30784 -10.30753 -10.30611 -10.28584 -10.28449
 Alpha  occ. eigenvalues --   -1.20721  -1.13203  -1.12316  -0.96323  -0.91322
 Alpha  occ. eigenvalues --   -0.86604  -0.85148  -0.84835  -0.78151  -0.75913
 Alpha  occ. eigenvalues --   -0.70761  -0.70125  -0.67983  -0.64079  -0.62533
 Alpha  occ. eigenvalues --   -0.60008  -0.58976  -0.57485  -0.56452  -0.54846
 Alpha  occ. eigenvalues --   -0.53433  -0.53278  -0.51960  -0.50771  -0.50244
 Alpha  occ. eigenvalues --   -0.48474  -0.47754  -0.46477  -0.45991  -0.45678
 Alpha  occ. eigenvalues --   -0.44650  -0.43988  -0.43090  -0.42530  -0.41806
 Alpha  occ. eigenvalues --   -0.40792  -0.38802  -0.37432  -0.35857  -0.33423
 Alpha  occ. eigenvalues --   -0.32453
 Alpha virt. eigenvalues --    0.04685   0.05180   0.06296   0.07267   0.07887
 Alpha virt. eigenvalues --    0.08205   0.08385   0.09399   0.09908   0.10018
 Alpha virt. eigenvalues --    0.10608   0.11221   0.11700   0.12273   0.12811

 Mulliken atomic charges:
              1
     1  C    0.021132
     2  C   -0.354122
     3  C   -0.320003
     4  C   -0.210403
     5  C   -0.119054
     6  C   -0.142288
     7  C    0.250639
     8  C    0.258577
     9  C   -0.014250
    10  O   -0.258934
    11  C   -0.071053
    12  O   -0.565024
    13  C   -0.623434
    14  O   -0.486333
    15  C   -0.478591
    16  H    0.179189
    17  H    0.185247
    18  H    0.185197
    19  H    0.185905
    20  H    0.182656
    21  H    0.166453
    22  H    0.216985
    23  H    0.173347
    24  H    0.179647
    25  H    0.398711
    26  H    0.170217
    27  H    0.172944
    28  H    0.187497
    29  H    0.171842
    30  H    0.177008
    31  H    0.180297
 Sum of Mulliken atomic charges =   0.00000

 Dipole moment (field-independent basis, Debye):
    X=              2.1738    Y=             -3.5837    Z=             -0.5309  Tot=              4.2249
 Quadrupole moment (field-independent basis, Debye-Ang):
   XX=            -82.0725   YY=            -89.6751   ZZ=            -88.9644
   XY=             11.8963   XZ=              1.9835   YZ=             -0.3528

 Normal termination of Gaussian 09 at Tue May 17 18:03:35 2022.
