 Gaussian 09, Revision C.01,
 Gaussian 09:  EM64L-G09RevC.01 23-Sep-2011

 ----------------------------------------------------------------
 # wb97xd/6-31+g** scrf=(pcm,solvent=chloroform,smd,dovacuum) nmr
 ----------------------------------------------------------------

 99/9=1/99;
 -------
 comment
 -------
 Charge =  0 Multiplicity = 1

                         Standard orientation:
 ---------------------------------------------------------------------
 Center     Atomic      Atomic             Coordinates (Angstroms)
 Number     Number       Type             X           Y           Z
 ---------------------------------------------------------------------
      1          6           0       -1.527937   -0.958693   -0.999486
      2          6           0       -3.431767   -0.355392    0.946053
      3          6           0       -2.525835   -1.883506   -0.685540
      4          6           0       -1.468411    0.280342   -0.342519
      5          6           0       -2.434406    0.569702    0.633641
      6          6           0       -3.476286   -1.582021    0.287445
      7          6           0       -0.363251    1.265564   -0.669313
      8          6           0        0.698512    1.359449    0.438354
      9          6           0        1.392235    0.032886    0.660862
     10          8           0        1.841385   -0.495582   -0.512475
     11          6           0        2.535095   -1.747998   -0.406316
     12          8           0       -0.974312    2.546283   -0.867887
     13          6           0        1.756365    2.425529    0.149362
     14          8           0        1.578304   -0.457631    1.767054
     15          6           0        4.009741   -1.506573   -0.145131
     16          1           0       -0.794985   -1.214882   -1.761246
     17          1           0       -4.174345   -0.116051    1.702547
     18          1           0       -2.561927   -2.839907   -1.200394
     19          1           0       -2.416149    1.527656    1.149912
     20          1           0       -4.253137   -2.301585    0.531424
     21          1           0        0.091989    0.986919   -1.628170
     22          1           0        0.210515    1.633006    1.383492
     23          1           0        2.410288   -2.263735   -1.364069
     24          1           0        2.088999   -2.388003    0.363555
     25          1           0       -0.403449    3.049387   -1.471927
     26          1           0        1.317028    3.428065    0.144993
     27          1           0        2.543770    2.410137    0.911217
     28          1           0        2.235483    2.258500   -0.821649
     29          1           0        4.438550   -0.868348   -0.924721
     30          1           0        4.559219   -2.451811   -0.120740
     31          1           0        4.160803   -0.989632    0.807760
 ---------------------------------------------------------------------

 SCF Done:  E(RwB97XD) =  -692.445078583     A.U. after   16 cycles

      1  C    Isotropic =    70.3903   Anisotropy =   159.8014

      2  C    Isotropic =    70.2174   Anisotropy =   178.2496

      3  C    Isotropic =    71.1954   Anisotropy =   174.7609

      4  C    Isotropic =    53.3518   Anisotropy =   184.5432

      5  C    Isotropic =    72.0657   Anisotropy =   178.8894

      6  C    Isotropic =    71.4309   Anisotropy =   176.1660

      7  C    Isotropic =   119.3986   Anisotropy =    27.9379

      8  C    Isotropic =   142.8993   Anisotropy =    30.0991

      9  C    Isotropic =    20.1238   Anisotropy =   104.8269

     10  O    Isotropic =   135.3074   Anisotropy =   169.5856

     11  C    Isotropic =   137.7203   Anisotropy =    66.2424

     12  O    Isotropic =   294.3814   Anisotropy =    44.4477

     13  C    Isotropic =   180.3876   Anisotropy =    27.2055

     14  O    Isotropic =   -48.1256   Anisotropy =   531.7124

     15  C    Isotropic =   181.6242   Anisotropy =    26.6694

     16  H    Isotropic =    23.8905   Anisotropy =     7.5671

     17  H    Isotropic =    23.6813   Anisotropy =     5.0655

     18  H    Isotropic =    23.9199   Anisotropy =     5.3080

     19  H    Isotropic =    23.5242   Anisotropy =     9.5539

     20  H    Isotropic =    23.8461   Anisotropy =     4.2698

     21  H    Isotropic =    26.7051   Anisotropy =     6.7834

     22  H    Isotropic =    28.5960   Anisotropy =     5.0716

     23  H    Isotropic =    27.7606   Anisotropy =     7.3091

     24  H    Isotropic =    27.1570   Anisotropy =     5.5862

     25  H    Isotropic =    29.1846   Anisotropy =    18.6213

     26  H    Isotropic =    29.9479   Anisotropy =     8.9069

     27  H    Isotropic =    30.3214   Anisotropy =     9.4223

     28  H    Isotropic =    30.4096   Anisotropy =     7.8126

     29  H    Isotropic =    30.5035   Anisotropy =     8.1136

     30  H    Isotropic =    30.6864   Anisotropy =    11.7346

     31  H    Isotropic =    30.3763   Anisotropy =     6.6457

 The electronic state is 1-A.
 Alpha  occ. eigenvalues --  -19.32902 -19.28320 -19.27512 -10.44060 -10.36042
 Alpha  occ. eigenvalues --  -10.35122 -10.31724 -10.31447 -10.30647 -10.30555
 Alpha  occ. eigenvalues --  -10.30522 -10.30497 -10.30404 -10.29419 -10.28714
 Alpha  occ. eigenvalues --   -1.21017  -1.13077  -1.12442  -0.96152  -0.91511
 Alpha  occ. eigenvalues --   -0.86550  -0.85424  -0.84610  -0.77983  -0.75778
 Alpha  occ. eigenvalues --   -0.71528  -0.70138  -0.67567  -0.64835  -0.61557
 Alpha  occ. eigenvalues --   -0.60759  -0.59255  -0.57519  -0.56100  -0.54646
 Alpha  occ. eigenvalues --   -0.53751  -0.52494  -0.51538  -0.51148  -0.50164
 Alpha  occ. eigenvalues --   -0.48644  -0.48538  -0.46995  -0.46226  -0.44931
 Alpha  occ. eigenvalues --   -0.44834  -0.44467  -0.43585  -0.42351  -0.42023
 Alpha  occ. eigenvalues --   -0.40576  -0.38831  -0.37606  -0.35418  -0.33154
 Alpha  occ. eigenvalues --   -0.32654
 Alpha virt. eigenvalues --    0.04933   0.05541   0.06538   0.06914   0.07517
 Alpha virt. eigenvalues --    0.08299   0.08571   0.09606   0.09768   0.10405
 Alpha virt. eigenvalues --    0.10502   0.11016   0.11526   0.12640   0.12804

 Mulliken atomic charges:
              1
     1  C   -0.219076
     2  C   -0.210940
     3  C   -0.287904
     4  C   -0.172771
     5  C    0.196264
     6  C   -0.151620
     7  C    0.022953
     8  C    0.093571
     9  C    0.040563
    10  O   -0.242040
    11  C    0.025945
    12  O   -0.569291
    13  C   -0.597132
    14  O   -0.465723
    15  C   -0.564789
    16  H    0.169434
    17  H    0.184653
    18  H    0.182452
    19  H    0.180428
    20  H    0.182118
    21  H    0.162064
    22  H    0.201109
    23  H    0.172375
    24  H    0.180528
    25  H    0.401600
    26  H    0.185806
    27  H    0.185061
    28  H    0.182536
    29  H    0.173373
    30  H    0.178230
    31  H    0.180221
 Sum of Mulliken atomic charges =   0.00000

 Dipole moment (field-independent basis, Debye):
    X=              2.1955    Y=             -0.2027    Z=             -3.1198  Tot=              3.8203
 Quadrupole moment (field-independent basis, Debye-Ang):
   XX=            -85.4717   YY=            -79.8802   ZZ=            -92.9151
   XY=              5.0832   XZ=             -9.8853   YZ=              3.1750

 Normal termination of Gaussian 09 at Tue May 17 20:20:23 2022.
