 Gaussian 09, Revision C.01,
 Gaussian 09:  EM64L-G09RevC.01 23-Sep-2011

 ----------------------------------------------------------------
 # wb97xd/6-31+g** scrf=(pcm,solvent=chloroform,smd,dovacuum) nmr
 ----------------------------------------------------------------

 99/9=1/99;
 -------
 comment
 -------
 Charge =  0 Multiplicity = 1

                         Standard orientation:
 ---------------------------------------------------------------------
 Center     Atomic      Atomic             Coordinates (Angstroms)
 Number     Number       Type             X           Y           Z
 ---------------------------------------------------------------------
      1          6           0        1.660945   -0.698256    1.168233
      2          6           0        3.191663   -0.830753   -1.158280
      3          6           0        2.520220   -1.778054    0.956001
      4          6           0        1.556723    0.330876    0.219100
      5          6           0        2.331951    0.248666   -0.947951
      6          6           0        3.284960   -1.843899   -0.206681
      7          6           0        0.592846    1.480903    0.446266
      8          6           0       -0.713530    1.306672   -0.343668
      9          6           0       -1.478718    0.129594    0.216475
     10          8           0       -1.874204   -0.701005   -0.786819
     11          6           0       -2.598200   -1.871720   -0.382460
     12          8           0        1.248329    2.690699    0.047411
     13          6           0       -1.614943    2.539128   -0.277334
     14          8           0       -1.729398   -0.025723    1.405077
     15          6           0       -4.079406   -1.560371   -0.280464
     16          1           0        1.067594   -0.668524    2.080598
     17          1           0        3.790221   -0.877526   -2.064085
     18          1           0        2.592307   -2.567742    1.699275
     19          1           0        2.272965    1.036711   -1.696374
     20          1           0        3.955510   -2.683177   -0.370216
     21          1           0        0.394943    1.571070    1.522361
     22          1           0       -0.482137    1.121213   -1.400794
     23          1           0       -2.207159   -2.277002    0.557894
     24          1           0       -2.433685   -2.631853   -1.153137
     25          1           0        0.891146    3.404962    0.601407
     26          1           0       -1.150167    3.397246   -0.773034
     27          1           0       -2.573492    2.347045   -0.772350
     28          1           0       -1.831026    2.818480    0.759886
     29          1           0       -4.269681   -0.800708    0.484252
     30          1           0       -4.648372   -2.459735   -0.028593
     31          1           0       -4.453860   -1.158943   -1.227874
 ---------------------------------------------------------------------

 SCF Done:  E(RwB97XD) =  -692.445301348     A.U. after   16 cycles

      1  C    Isotropic =    70.7742   Anisotropy =   162.9929

      2  C    Isotropic =    69.6741   Anisotropy =   176.2744

      3  C    Isotropic =    70.5587   Anisotropy =   173.5836

      4  C    Isotropic =    52.3295   Anisotropy =   183.7260

      5  C    Isotropic =    73.6133   Anisotropy =   181.4826

      6  C    Isotropic =    72.0362   Anisotropy =   176.4200

      7  C    Isotropic =   119.7596   Anisotropy =    30.0825

      8  C    Isotropic =   144.3205   Anisotropy =    29.5308

      9  C    Isotropic =    19.1587   Anisotropy =   103.6336

     10  O    Isotropic =   126.3060   Anisotropy =   150.6532

     11  C    Isotropic =   138.1310   Anisotropy =    65.4855

     12  O    Isotropic =   298.7541   Anisotropy =    49.1689

     13  C    Isotropic =   180.5557   Anisotropy =    26.2394

     14  O    Isotropic =   -31.7696   Anisotropy =   562.5934

     15  C    Isotropic =   181.7445   Anisotropy =    26.3741

     16  H    Isotropic =    23.9940   Anisotropy =     8.0308

     17  H    Isotropic =    23.7413   Anisotropy =     4.8518

     18  H    Isotropic =    23.9348   Anisotropy =     5.0342

     19  H    Isotropic =    23.4002   Anisotropy =     9.5160

     20  H    Isotropic =    23.8588   Anisotropy =     4.1089

     21  H    Isotropic =    26.7290   Anisotropy =     6.3896

     22  H    Isotropic =    28.7056   Anisotropy =     3.5307

     23  H    Isotropic =    27.3051   Anisotropy =     5.1023

     24  H    Isotropic =    28.2217   Anisotropy =     7.3222

     25  H    Isotropic =    29.0148   Anisotropy =    18.9516

     26  H    Isotropic =    29.9999   Anisotropy =     9.0637

     27  H    Isotropic =    30.4174   Anisotropy =     9.2704

     28  H    Isotropic =    30.4792   Anisotropy =     8.3816

     29  H    Isotropic =    30.3788   Anisotropy =     6.1118

     30  H    Isotropic =    30.7647   Anisotropy =    11.6235

     31  H    Isotropic =    30.5767   Anisotropy =     8.7561

 The electronic state is 1-A.
 Alpha  occ. eigenvalues --  -19.32917 -19.28277 -19.27643 -10.44073 -10.36017
 Alpha  occ. eigenvalues --  -10.34995 -10.31635 -10.31412 -10.30551 -10.30520
 Alpha  occ. eigenvalues --  -10.30469 -10.30457 -10.30359 -10.29309 -10.28660
 Alpha  occ. eigenvalues --   -1.21035  -1.13082  -1.12574  -0.96098  -0.91350
 Alpha  occ. eigenvalues --   -0.86707  -0.85339  -0.84554  -0.77927  -0.76214
 Alpha  occ. eigenvalues --   -0.70802  -0.70155  -0.67375  -0.64400  -0.61989
 Alpha  occ. eigenvalues --   -0.60525  -0.59146  -0.57882  -0.56162  -0.54719
 Alpha  occ. eigenvalues --   -0.53155  -0.52891  -0.51675  -0.51414  -0.50145
 Alpha  occ. eigenvalues --   -0.48669  -0.48217  -0.46974  -0.46196  -0.44944
 Alpha  occ. eigenvalues --   -0.44789  -0.43875  -0.43748  -0.42182  -0.41922
 Alpha  occ. eigenvalues --   -0.40522  -0.38874  -0.37272  -0.35966  -0.33101
 Alpha  occ. eigenvalues --   -0.32562
 Alpha virt. eigenvalues --    0.05041   0.05546   0.06410   0.06906   0.07541
 Alpha virt. eigenvalues --    0.08404   0.08705   0.09583   0.09772   0.10316
 Alpha virt. eigenvalues --    0.10792   0.10895   0.11801   0.12297   0.12758

 Mulliken atomic charges:
              1
     1  C   -0.118402
     2  C   -0.189833
     3  C   -0.259559
     4  C   -0.106348
     5  C    0.095908
     6  C   -0.179437
     7  C   -0.092502
     8  C    0.240865
     9  C   -0.216319
    10  O   -0.209736
    11  C    0.038465
    12  O   -0.567225
    13  C   -0.579172
    14  O   -0.442660
    15  C   -0.528350
    16  H    0.173614
    17  H    0.184159
    18  H    0.182386
    19  H    0.180523
    20  H    0.181594
    21  H    0.170285
    22  H    0.199777
    23  H    0.179957
    24  H    0.172960
    25  H    0.404434
    26  H    0.187482
    27  H    0.182075
    28  H    0.184282
    29  H    0.179531
    30  H    0.177312
    31  H    0.173935
 Sum of Mulliken atomic charges =   0.00000

 Dipole moment (field-independent basis, Debye):
    X=             -1.7519    Y=             -0.3910    Z=             -0.8000  Tot=              1.9652
 Quadrupole moment (field-independent basis, Debye-Ang):
   XX=            -88.6849   YY=            -77.1204   ZZ=            -90.3545
   XY=             -3.6537   XZ=              2.3924   YZ=              2.2883

 Normal termination of Gaussian 09 at Tue May 17 17:19:55 2022.
