 Gaussian 09, Revision C.01,
 Gaussian 09:  EM64L-G09RevC.01 23-Sep-2011

 ----------------------------------------------------------------
 # wb97xd/6-31+g** scrf=(pcm,solvent=chloroform,smd,dovacuum) nmr
 ----------------------------------------------------------------

 99/9=1/99;
 -------
 comment
 -------
 Charge =  0 Multiplicity = 1

                         Standard orientation:
 ---------------------------------------------------------------------
 Center     Atomic      Atomic             Coordinates (Angstroms)
 Number     Number       Type             X           Y           Z
 ---------------------------------------------------------------------
      1          6           0        2.389012   -1.030736   -0.539124
      2          6           0        2.460223    1.537816    0.542048
      3          6           0        3.463699   -0.183712   -0.816273
      4          6           0        1.338053   -0.605807    0.288306
      5          6           0        1.385767    0.691781    0.820834
      6          6           0        3.499439    1.099243   -0.274857
      7          6           0        0.171970   -1.534990    0.565230
      8          6           0       -0.925896   -1.514725   -0.508397
      9          6           0       -1.450107   -0.124793   -0.805422
     10          8           0       -2.142257    0.400235    0.240566
     11          6           0       -2.754920    1.677487    0.013759
     12          8           0       -0.355780   -1.331366    1.876131
     13          6           0       -2.087973   -2.452295   -0.178981
     14          8           0       -1.291970    0.431320   -1.886670
     15          6           0       -1.776932    2.797880    0.311383
     16          1           0        2.377743   -2.025929   -0.978902
     17          1           0        2.481876    2.542268    0.956873
     18          1           0        4.270978   -0.523044   -1.460339
     19          1           0        0.577553    1.057558    1.451288
     20          1           0        4.333583    1.760016   -0.495707
     21          1           0        0.577864   -2.555342    0.595694
     22          1           0       -0.481472   -1.867347   -1.450192
     23          1           0       -3.609483    1.746283    0.694902
     24          1           0       -3.151621    1.752519   -1.005289
     25          1           0        0.402428   -1.186578    2.468907
     26          1           0       -2.835053   -2.437757   -0.980339
     27          1           0       -1.733879   -3.482226   -0.066004
     28          1           0       -2.598376   -2.165480    0.746560
     29          1           0       -1.399388    2.716567    1.335762
     30          1           0       -2.256866    3.773120    0.190212
     31          1           0       -0.909846    2.750959   -0.354674
 ---------------------------------------------------------------------

 SCF Done:  E(RwB97XD) =  -692.442364548     A.U. after   16 cycles

      1  C    Isotropic =    71.1646   Anisotropy =   164.9065

      2  C    Isotropic =    69.8839   Anisotropy =   178.0128

      3  C    Isotropic =    70.3914   Anisotropy =   175.7434

      4  C    Isotropic =    52.2910   Anisotropy =   181.7633

      5  C    Isotropic =    73.6317   Anisotropy =   181.0756

      6  C    Isotropic =    71.6802   Anisotropy =   176.7848

      7  C    Isotropic =   121.6402   Anisotropy =    36.2409

      8  C    Isotropic =   146.0530   Anisotropy =    19.7173

      9  C    Isotropic =    19.9048   Anisotropy =   104.1108

     10  O    Isotropic =   130.6063   Anisotropy =   180.7287

     11  C    Isotropic =   137.1300   Anisotropy =    66.3995

     12  O    Isotropic =   292.0657   Anisotropy =    78.0812

     13  C    Isotropic =   180.2872   Anisotropy =    26.6537

     14  O    Isotropic =   -53.1570   Anisotropy =   532.3833

     15  C    Isotropic =   180.4285   Anisotropy =    22.3342

     16  H    Isotropic =    23.7959   Anisotropy =     8.1224

     17  H    Isotropic =    23.7939   Anisotropy =     5.7353

     18  H    Isotropic =    23.7420   Anisotropy =     4.6296

     19  H    Isotropic =    23.4555   Anisotropy =     7.8993

     20  H    Isotropic =    23.8032   Anisotropy =     4.2442

     21  H    Isotropic =    26.5324   Anisotropy =     7.6850

     22  H    Isotropic =    28.6941   Anisotropy =     5.4833

     23  H    Isotropic =    27.6419   Anisotropy =     8.4514

     24  H    Isotropic =    27.0575   Anisotropy =     7.2902

     25  H    Isotropic =    29.9436   Anisotropy =    15.6667

     26  H    Isotropic =    30.4322   Anisotropy =     9.9270

     27  H    Isotropic =    30.3696   Anisotropy =    10.5975

     28  H    Isotropic =    29.7013   Anisotropy =     6.2962

     29  H    Isotropic =    30.2156   Anisotropy =     6.5331

     30  H    Isotropic =    30.5790   Anisotropy =    11.7563

     31  H    Isotropic =    30.3678   Anisotropy =     5.8111

 The electronic state is 1-A.
 Alpha  occ. eigenvalues --  -19.32377 -19.28012 -19.27162 -10.43675 -10.36190
 Alpha  occ. eigenvalues --  -10.34829 -10.31990 -10.31689 -10.30851 -10.30756
 Alpha  occ. eigenvalues --  -10.30747 -10.30699 -10.30564 -10.28934 -10.28479
 Alpha  occ. eigenvalues --   -1.20623  -1.12969  -1.12006  -0.96313  -0.91362
 Alpha  occ. eigenvalues --   -0.86614  -0.85191  -0.84827  -0.77718  -0.75920
 Alpha  occ. eigenvalues --   -0.71149  -0.70168  -0.68405  -0.64540  -0.62205
 Alpha  occ. eigenvalues --   -0.60208  -0.57718  -0.57203  -0.56043  -0.55005
 Alpha  occ. eigenvalues --   -0.53364  -0.52512  -0.51895  -0.50623  -0.50475
 Alpha  occ. eigenvalues --   -0.49456  -0.47307  -0.46527  -0.46131  -0.45436
 Alpha  occ. eigenvalues --   -0.45386  -0.44468  -0.43020  -0.42360  -0.41471
 Alpha  occ. eigenvalues --   -0.40412  -0.38471  -0.37066  -0.35644  -0.33377
 Alpha  occ. eigenvalues --   -0.32354
 Alpha virt. eigenvalues --    0.04889   0.05094   0.06525   0.07163   0.07542
 Alpha virt. eigenvalues --    0.08401   0.08668   0.09505   0.09529   0.10213
 Alpha virt. eigenvalues --    0.10684   0.11374   0.11652   0.12509   0.13100

 Mulliken atomic charges:
              1
     1  C    0.203661
     2  C   -0.257320
     3  C   -0.326969
     4  C   -0.372568
     5  C   -0.337831
     6  C   -0.143127
     7  C    0.305826
     8  C    0.252544
     9  C   -0.019332
    10  O   -0.197604
    11  C    0.019263
    12  O   -0.563064
    13  C   -0.688976
    14  O   -0.445028
    15  C   -0.502449
    16  H    0.176675
    17  H    0.183236
    18  H    0.185717
    19  H    0.178519
    20  H    0.183119
    21  H    0.149531
    22  H    0.203821
    23  H    0.171318
    24  H    0.176000
    25  H    0.394314
    26  H    0.176724
    27  H    0.174180
    28  H    0.190771
    29  H    0.171379
    30  H    0.175713
    31  H    0.181958
 Sum of Mulliken atomic charges =   0.00000

 Dipole moment (field-independent basis, Debye):
    X=              1.1449    Y=             -0.3139    Z=              1.6137  Tot=              2.0033
 Quadrupole moment (field-independent basis, Debye-Ang):
   XX=            -80.6248   YY=            -78.5681   ZZ=            -96.6154
   XY=             -3.4795   XZ=             -1.3570   YZ=              6.8866

 Normal termination of Gaussian 09 at Tue May 17 16:56:51 2022.
