 Gaussian 09, Revision C.01,
 Gaussian 09:  EM64L-G09RevC.01 23-Sep-2011

 ----------------------------------------------------------------
 # wb97xd/6-31+g** scrf=(pcm,solvent=chloroform,smd,dovacuum) nmr
 ----------------------------------------------------------------

 99/9=1/99;
 -------
 comment
 -------
 Charge =  0 Multiplicity = 1

                         Standard orientation:
 ---------------------------------------------------------------------
 Center     Atomic      Atomic             Coordinates (Angstroms)
 Number     Number       Type             X           Y           Z
 ---------------------------------------------------------------------
      1          6           0       -2.491593    0.040003    1.272915
      2          6           0       -3.759987   -0.469953   -1.157782
      3          6           0       -3.881785    0.129567    1.175549
      4          6           0       -1.716980   -0.303869    0.153780
      5          6           0       -2.370339   -0.559206   -1.062286
      6          6           0       -4.514942   -0.124046   -0.039382
      7          6           0       -0.205349   -0.372563    0.262335
      8          6           0        0.502779    0.792015   -0.455428
      9          6           0        2.014919    0.687725   -0.386895
     10          8           0        2.436874   -0.067467    0.665058
     11          6           0        3.860146   -0.183147    0.824824
     12          8           0        0.197441   -1.619722   -0.314816
     13          6           0        0.108618    2.160439    0.101696
     14          8           0        2.762131    1.263206   -1.169339
     15          6           0        4.386605   -1.330902   -0.015917
     16          1           0       -2.017942    0.242139    2.230812
     17          1           0       -4.251896   -0.675652   -2.104755
     18          1           0       -4.471475    0.395619    2.048905
     19          1           0       -1.793150   -0.842069   -1.940582
     20          1           0       -5.596991   -0.056970   -0.113909
     21          1           0        0.069093   -0.407326    1.324462
     22          1           0        0.256826    0.747358   -1.525089
     23          1           0        4.046088   -0.387501    1.884293
     24          1           0        4.367164    0.758402    0.585037
     25          1           0        1.051600   -1.851639    0.090698
     26          1           0        0.687629    2.960460   -0.373325
     27          1           0       -0.949519    2.376623   -0.074126
     28          1           0        0.297763    2.216628    1.179539
     29          1           0        3.869606   -2.262058    0.238403
     30          1           0        5.459873   -1.467928    0.143143
     31          1           0        4.211209   -1.150597   -1.081177
 ---------------------------------------------------------------------

 SCF Done:  E(RwB97XD) =  -692.446110332     A.U. after   15 cycles

      1  C    Isotropic =    70.0085   Anisotropy =   161.7117

      2  C    Isotropic =    69.6904   Anisotropy =   176.8231

      3  C    Isotropic =    70.6612   Anisotropy =   173.5852

      4  C    Isotropic =    53.9200   Anisotropy =   184.0292

      5  C    Isotropic =    72.6776   Anisotropy =   179.8677

      6  C    Isotropic =    72.3333   Anisotropy =   177.7817

      7  C    Isotropic =   119.6724   Anisotropy =    32.0772

      8  C    Isotropic =   143.2146   Anisotropy =    31.6931

      9  C    Isotropic =    18.6115   Anisotropy =   101.5691

     10  O    Isotropic =   134.8780   Anisotropy =   159.8125

     11  C    Isotropic =   137.1848   Anisotropy =    66.8283

     12  O    Isotropic =   284.9132   Anisotropy =    53.3961

     13  C    Isotropic =   180.7609   Anisotropy =    24.3163

     14  O    Isotropic =   -43.9224   Anisotropy =   540.6204

     15  C    Isotropic =   181.1999   Anisotropy =    25.8726

     16  H    Isotropic =    23.8370   Anisotropy =     8.0786

     17  H    Isotropic =    23.6668   Anisotropy =     5.0814

     18  H    Isotropic =    23.8419   Anisotropy =     4.7580

     19  H    Isotropic =    23.4797   Anisotropy =     9.9202

     20  H    Isotropic =    23.6746   Anisotropy =     4.2410

     21  H    Isotropic =    26.6137   Anisotropy =     4.7082

     22  H    Isotropic =    28.6336   Anisotropy =     4.2064

     23  H    Isotropic =    27.6394   Anisotropy =     8.1871

     24  H    Isotropic =    26.7416   Anisotropy =     6.5771

     25  H    Isotropic =    28.6041   Anisotropy =    19.1387

     26  H    Isotropic =    30.5846   Anisotropy =    10.1136

     27  H    Isotropic =    31.1075   Anisotropy =     6.6456

     28  H    Isotropic =    30.7508   Anisotropy =     8.0693

     29  H    Isotropic =    30.4360   Anisotropy =     7.3644

     30  H    Isotropic =    30.4860   Anisotropy =    11.7549

     31  H    Isotropic =    30.2043   Anisotropy =     6.4526

 The electronic state is 1-A.
 Alpha  occ. eigenvalues --  -19.33451 -19.28023 -19.27646 -10.44309 -10.35858
 Alpha  occ. eigenvalues --  -10.35377 -10.31929 -10.31492 -10.30676 -10.30601
 Alpha  occ. eigenvalues --  -10.30580 -10.30527 -10.30453 -10.29375 -10.28910
 Alpha  occ. eigenvalues --   -1.21461  -1.12963  -1.12533  -0.96160  -0.91451
 Alpha  occ. eigenvalues --   -0.86958  -0.85180  -0.84650  -0.77650  -0.76299
 Alpha  occ. eigenvalues --   -0.71898  -0.70122  -0.67245  -0.65244  -0.61713
 Alpha  occ. eigenvalues --   -0.60140  -0.59956  -0.57569  -0.56221  -0.54395
 Alpha  occ. eigenvalues --   -0.53746  -0.52937  -0.51635  -0.50937  -0.50253
 Alpha  occ. eigenvalues --   -0.49584  -0.47795  -0.46985  -0.46706  -0.45366
 Alpha  occ. eigenvalues --   -0.44801  -0.43991  -0.43114  -0.42442  -0.42124
 Alpha  occ. eigenvalues --   -0.41289  -0.39099  -0.37260  -0.35807  -0.33220
 Alpha  occ. eigenvalues --   -0.32615
 Alpha virt. eigenvalues --    0.05115   0.05390   0.06258   0.07182   0.07544
 Alpha virt. eigenvalues --    0.08135   0.08570   0.09400   0.09613   0.10534
 Alpha virt. eigenvalues --    0.10634   0.11393   0.11423   0.12115   0.12811

 Mulliken atomic charges:
              1
     1  C   -0.365589
     2  C   -0.247778
     3  C   -0.310267
     4  C    0.217048
     5  C    0.232756
     6  C   -0.142004
     7  C   -0.316194
     8  C    0.014856
     9  C    0.256463
    10  O   -0.321484
    11  C   -0.058397
    12  O   -0.551950
    13  C   -0.555403
    14  O   -0.496456
    15  C   -0.489307
    16  H    0.175402
    17  H    0.184866
    18  H    0.183952
    19  H    0.181959
    20  H    0.182100
    21  H    0.164020
    22  H    0.209297
    23  H    0.175521
    24  H    0.182775
    25  H    0.404624
    26  H    0.185624
    27  H    0.189624
    28  H    0.181286
    29  H    0.171404
    30  H    0.179964
    31  H    0.181288
 Sum of Mulliken atomic charges =   0.00000

 Dipole moment (field-independent basis, Debye):
    X=              0.5988    Y=              0.0352    Z=              3.1648  Tot=              3.2212
 Quadrupole moment (field-independent basis, Debye-Ang):
   XX=            -77.2720   YY=            -95.8799   ZZ=            -87.0533
   XY=             -9.8991   XZ=              9.2190   YZ=              2.9281

 Normal termination of Gaussian 09 at Tue May 17 16:43:30 2022.
