 Gaussian 09, Revision C.01,
 Gaussian 09:  EM64L-G09RevC.01 23-Sep-2011

 ----------------------------------------------------------------
 # wb97xd/6-31+g** scrf=(pcm,solvent=chloroform,smd,dovacuum) nmr
 ----------------------------------------------------------------

 99/9=1/99;
 -------
 comment
 -------
 Charge =  0 Multiplicity = 1

                         Standard orientation:
 ---------------------------------------------------------------------
 Center     Atomic      Atomic             Coordinates (Angstroms)
 Number     Number       Type             X           Y           Z
 ---------------------------------------------------------------------
      1          6           0       -2.771660    0.075850   -1.163270
      2          6           0       -3.713228   -0.453473    1.407849
      3          6           0       -4.065202   -0.416687   -0.978356
      4          6           0       -1.930623    0.307120   -0.063481
      5          6           0       -2.419753    0.038054    1.224576
      6          6           0       -4.534639   -0.682527    0.306296
      7          6           0       -0.517841    0.815147   -0.275984
      8          6           0        0.558493   -0.252333    0.007252
      9          6           0        1.927861    0.353333   -0.230963
     10          8           0        2.905450   -0.485189    0.214591
     11          6           0        4.237799    0.015180    0.048112
     12          8           0       -0.339126    1.933027    0.602346
     13          6           0        0.402781   -1.492778   -0.874148
     14          8           0        2.127245    1.453600   -0.731768
     15          6           0        5.203714   -1.025905    0.578923
     16          1           0       -2.425361    0.278574   -2.174180
     17          1           0       -4.080407   -0.650734    2.411441
     18          1           0       -4.708147   -0.589864   -1.837345
     19          1           0       -1.792937    0.226510    2.093961
     20          1           0       -5.542766   -1.061904    0.449748
     21          1           0       -0.424524    1.198989   -1.300360
     22          1           0        0.519668   -0.534486    1.067610
     23          1           0        4.354167    0.948968    0.609419
     24          1           0        4.434816    0.195278   -1.014605
     25          1           0        0.421201    2.435352    0.249320
     26          1           0        1.216335   -2.206588   -0.704964
     27          1           0       -0.534017   -2.018502   -0.665955
     28          1           0        0.419833   -1.225830   -1.936760
     29          1           0        5.005271   -1.232495    1.635825
     30          1           0        6.238416   -0.688199    0.473100
     31          1           0        5.083692   -1.972462    0.041573
 ---------------------------------------------------------------------

 SCF Done:  E(RwB97XD) =  -692.447771246     A.U. after   15 cycles

      1  C    Isotropic =    69.7170   Anisotropy =   161.9615

      2  C    Isotropic =    69.6395   Anisotropy =   176.7708

      3  C    Isotropic =    70.3987   Anisotropy =   172.5672

      4  C    Isotropic =    54.2103   Anisotropy =   185.4817

      5  C    Isotropic =    72.6582   Anisotropy =   180.3049

      6  C    Isotropic =    71.8922   Anisotropy =   176.5251

      7  C    Isotropic =   118.4221   Anisotropy =    32.0821

      8  C    Isotropic =   145.4918   Anisotropy =    36.0163

      9  C    Isotropic =    16.4101   Anisotropy =   102.4541

     10  O    Isotropic =   131.0419   Anisotropy =   172.4052

     11  C    Isotropic =   136.5263   Anisotropy =    58.8121

     12  O    Isotropic =   283.2848   Anisotropy =    42.9019

     13  C    Isotropic =   181.4688   Anisotropy =    21.9614

     14  O    Isotropic =   -38.3933   Anisotropy =   545.3149

     15  C    Isotropic =   182.5777   Anisotropy =    23.1239

     16  H    Isotropic =    23.7929   Anisotropy =     8.0144

     17  H    Isotropic =    23.6706   Anisotropy =     5.0289

     18  H    Isotropic =    23.8765   Anisotropy =     4.6805

     19  H    Isotropic =    23.3952   Anisotropy =     9.8150

     20  H    Isotropic =    23.7588   Anisotropy =     4.1397

     21  H    Isotropic =    26.6772   Anisotropy =     4.8277

     22  H    Isotropic =    28.7392   Anisotropy =     3.8553

     23  H    Isotropic =    27.4514   Anisotropy =     6.3133

     24  H    Isotropic =    27.4618   Anisotropy =     6.4764

     25  H    Isotropic =    28.0051   Anisotropy =    18.0717

     26  H    Isotropic =    30.4338   Anisotropy =     9.8173

     27  H    Isotropic =    31.2040   Anisotropy =     6.5754

     28  H    Isotropic =    30.8231   Anisotropy =     8.4245

     29  H    Isotropic =    30.2920   Anisotropy =     8.4431

     30  H    Isotropic =    30.3530   Anisotropy =    10.9090

     31  H    Isotropic =    30.3086   Anisotropy =     8.1717

 The electronic state is 1-A.
 Alpha  occ. eigenvalues --  -19.33130 -19.28360 -19.27563 -10.44477 -10.35664
 Alpha  occ. eigenvalues --  -10.35232 -10.31957 -10.31407 -10.30604 -10.30558
 Alpha  occ. eigenvalues --  -10.30526 -10.30477 -10.30409 -10.29335 -10.28947
 Alpha  occ. eigenvalues --   -1.21521  -1.13535  -1.11975  -0.96091  -0.91467
 Alpha  occ. eigenvalues --   -0.87150  -0.85081  -0.84597  -0.77303  -0.75948
 Alpha  occ. eigenvalues --   -0.71252  -0.70097  -0.67286  -0.65605  -0.61647
 Alpha  occ. eigenvalues --   -0.59733  -0.59157  -0.58385  -0.57659  -0.54203
 Alpha  occ. eigenvalues --   -0.53478  -0.52908  -0.51072  -0.50687  -0.50160
 Alpha  occ. eigenvalues --   -0.49330  -0.47668  -0.47552  -0.46073  -0.45427
 Alpha  occ. eigenvalues --   -0.44395  -0.43845  -0.43417  -0.43283  -0.42210
 Alpha  occ. eigenvalues --   -0.41100  -0.39086  -0.37161  -0.35769  -0.33172
 Alpha  occ. eigenvalues --   -0.32630
 Alpha virt. eigenvalues --    0.05120   0.05458   0.06146   0.07311   0.07921
 Alpha virt. eigenvalues --    0.08248   0.08502   0.09494   0.09912   0.10263
 Alpha virt. eigenvalues --    0.10843   0.11092   0.11571   0.12134   0.12626

 Mulliken atomic charges:
              1
     1  C   -0.340056
     2  C   -0.230031
     3  C   -0.290581
     4  C    0.165522
     5  C    0.154479
     6  C   -0.147126
     7  C   -0.212256
     8  C   -0.047466
     9  C    0.231841
    10  O   -0.303387
    11  C    0.173656
    12  O   -0.555437
    13  C   -0.513699
    14  O   -0.538538
    15  C   -0.676891
    16  H    0.176141
    17  H    0.184425
    18  H    0.183929
    19  H    0.180214
    20  H    0.181811
    21  H    0.163585
    22  H    0.214232
    23  H    0.176631
    24  H    0.175392
    25  H    0.400987
    26  H    0.183640
    27  H    0.189699
    28  H    0.184682
    29  H    0.176457
    30  H    0.181923
    31  H    0.176222
 Sum of Mulliken atomic charges =   0.00000

 Dipole moment (field-independent basis, Debye):
    X=              2.0005    Y=             -2.9383    Z=             -0.7277  Tot=              3.6284
 Quadrupole moment (field-independent basis, Debye-Ang):
   XX=            -72.9616   YY=            -97.2383   ZZ=            -85.2985
   XY=              2.5386   XZ=              3.1262   YZ=             -0.5916

 Normal termination of Gaussian 09 at Tue May 17 15:26:56 2022.
