 Gaussian 09, Revision C.01,
 Gaussian 09:  EM64L-G09RevC.01 23-Sep-2011

 ----------------------------------------------------------------
 # wb97xd/6-31+g** scrf=(pcm,solvent=chloroform,smd,dovacuum) nmr
 ----------------------------------------------------------------

 99/9=1/99;
 -------
 comment
 -------
 Charge =  0 Multiplicity = 1

                         Standard orientation:
 ---------------------------------------------------------------------
 Center     Atomic      Atomic             Coordinates (Angstroms)
 Number     Number       Type             X           Y           Z
 ---------------------------------------------------------------------
      1          6           0        2.254471    1.403537    0.090228
      2          6           0        3.925522   -0.816801   -0.156366
      3          6           0        3.624834    1.528121    0.326078
      4          6           0        1.703374    0.164997   -0.270460
      5          6           0        2.556128   -0.944068   -0.392377
      6          6           0        4.459084    0.418805    0.203183
      7          6           0        0.212161    0.035754   -0.522794
      8          6           0       -0.510014   -0.866783    0.489951
      9          6           0       -1.995858   -0.905393    0.198573
     10          8           0       -2.526244    0.348014    0.123051
     11          6           0       -3.935004    0.374694   -0.135416
     12          8           0        0.033085   -0.494758   -1.841181
     13          6           0       -0.315014   -0.436832    1.944026
     14          8           0       -2.645245   -1.941382    0.115670
     15          6           0       -4.370337    1.824195   -0.226246
     16          1           0        1.620845    2.282069    0.193427
     17          1           0        4.575854   -1.682495   -0.253443
     18          1           0        4.042363    2.491839    0.606836
     19          1           0        2.154593   -1.915447   -0.676496
     20          1           0        5.525774    0.517259    0.387539
     21          1           0       -0.234766    1.036900   -0.535129
     22          1           0       -0.153340   -1.899145    0.374441
     23          1           0       -4.469656   -0.121520    0.682190
     24          1           0       -4.148513   -0.135529   -1.081371
     25          1           0        0.760323   -0.155255   -2.392709
     26          1           0       -0.945330   -1.031988    2.614384
     27          1           0        0.723101   -0.569828    2.263909
     28          1           0       -0.584684    0.615209    2.088964
     29          1           0       -4.144161    2.353650    0.705230
     30          1           0       -5.443508    1.897828   -0.423015
     31          1           0       -3.827746    2.340098   -1.025361
 ---------------------------------------------------------------------

 SCF Done:  E(RwB97XD) =  -692.445575885     A.U. after   16 cycles

      1  C    Isotropic =    69.1049   Anisotropy =   159.2513

      2  C    Isotropic =    69.2859   Anisotropy =   179.0645

      3  C    Isotropic =    70.2225   Anisotropy =   174.4278

      4  C    Isotropic =    52.9431   Anisotropy =   187.1731

      5  C    Isotropic =    73.0984   Anisotropy =   179.4075

      6  C    Isotropic =    70.6309   Anisotropy =   176.2477

      7  C    Isotropic =   117.8715   Anisotropy =    26.9088

      8  C    Isotropic =   145.7465   Anisotropy =    27.0526

      9  C    Isotropic =    17.5699   Anisotropy =   103.8854

     10  O    Isotropic =   140.2780   Anisotropy =   157.0313

     11  C    Isotropic =   136.3082   Anisotropy =    59.0576

     12  O    Isotropic =   267.2187   Anisotropy =    47.4801

     13  C    Isotropic =   180.8859   Anisotropy =    22.3638

     14  O    Isotropic =   -56.1324   Anisotropy =   530.7654

     15  C    Isotropic =   182.5124   Anisotropy =    22.9538

     16  H    Isotropic =    23.7417   Anisotropy =     7.7904

     17  H    Isotropic =    23.6544   Anisotropy =     5.0650

     18  H    Isotropic =    23.7985   Anisotropy =     4.8856

     19  H    Isotropic =    23.3512   Anisotropy =     9.7756

     20  H    Isotropic =    23.7797   Anisotropy =     4.1249

     21  H    Isotropic =    26.5117   Anisotropy =     3.7399

     22  H    Isotropic =    28.4865   Anisotropy =     5.1235

     23  H    Isotropic =    27.4471   Anisotropy =     7.0420

     24  H    Isotropic =    27.4600   Anisotropy =     6.6947

     25  H    Isotropic =    29.9427   Anisotropy =    14.4397

     26  H    Isotropic =    30.6020   Anisotropy =    10.2848

     27  H    Isotropic =    31.1867   Anisotropy =     6.7869

     28  H    Isotropic =    30.6732   Anisotropy =     7.3799

     29  H    Isotropic =    30.2511   Anisotropy =     8.1720

     30  H    Isotropic =    30.3331   Anisotropy =    11.0289

     31  H    Isotropic =    30.2048   Anisotropy =     7.8382

 The electronic state is 1-A.
 Alpha  occ. eigenvalues --  -19.32720 -19.28169 -19.27378 -10.43778 -10.35964
 Alpha  occ. eigenvalues --  -10.34943 -10.31936 -10.31688 -10.30966 -10.30942
 Alpha  occ. eigenvalues --  -10.30879 -10.30854 -10.30758 -10.29425 -10.28762
 Alpha  occ. eigenvalues --   -1.20924  -1.12997  -1.12231  -0.96415  -0.91633
 Alpha  occ. eigenvalues --   -0.86852  -0.85239  -0.84948  -0.77946  -0.75305
 Alpha  occ. eigenvalues --   -0.71485  -0.70226  -0.67826  -0.65705  -0.61881
 Alpha  occ. eigenvalues --   -0.59512  -0.58597  -0.58161  -0.56957  -0.54989
 Alpha  occ. eigenvalues --   -0.53498  -0.52999  -0.51394  -0.50754  -0.50083
 Alpha  occ. eigenvalues --   -0.49230  -0.47518  -0.46971  -0.46124  -0.45401
 Alpha  occ. eigenvalues --   -0.45216  -0.43719  -0.43402  -0.42941  -0.42514
 Alpha  occ. eigenvalues --   -0.40975  -0.38756  -0.36880  -0.36002  -0.33560
 Alpha  occ. eigenvalues --   -0.32682
 Alpha virt. eigenvalues --    0.04553   0.05110   0.06636   0.07290   0.07994
 Alpha virt. eigenvalues --    0.08302   0.08583   0.09481   0.09665   0.10247
 Alpha virt. eigenvalues --    0.10735   0.11057   0.11418   0.12422   0.12780

 Mulliken atomic charges:
              1
     1  C   -0.188526
     2  C   -0.339925
     3  C   -0.310860
     4  C   -0.282707
     5  C    0.208271
     6  C   -0.120468
     7  C    0.107111
     8  C    0.245937
     9  C    0.039846
    10  O   -0.283570
    11  C    0.088484
    12  O   -0.542156
    13  C   -0.563827
    14  O   -0.485572
    15  C   -0.691425
    16  H    0.180462
    17  H    0.186962
    18  H    0.185834
    19  H    0.184313
    20  H    0.183648
    21  H    0.159985
    22  H    0.199322
    23  H    0.174389
    24  H    0.175455
    25  H    0.401159
    26  H    0.183972
    27  H    0.186740
    28  H    0.185360
    29  H    0.174964
    30  H    0.180728
    31  H    0.176095
 Sum of Mulliken atomic charges =   0.00000

 Dipole moment (field-independent basis, Debye):
    X=              2.2616    Y=              3.6704    Z=              0.9893  Tot=              4.4233
 Quadrupole moment (field-independent basis, Debye-Ang):
   XX=            -77.1532   YY=            -92.2873   ZZ=            -90.3830
   XY=            -10.7144   XZ=             -1.4510   YZ=             -1.2878

 Normal termination of Gaussian 09 at Tue May 17 18:46:26 2022.
