 Gaussian 09, Revision C.01,
 Gaussian 09:  EM64L-G09RevC.01 23-Sep-2011

 ----------------------------------------------------------------
 # wb97xd/6-31+g** scrf=(pcm,solvent=chloroform,smd,dovacuum) nmr
 ----------------------------------------------------------------

 99/9=1/99;
 -------
 comment
 -------
 Charge =  0 Multiplicity = 1

                         Standard orientation:
 ---------------------------------------------------------------------
 Center     Atomic      Atomic             Coordinates (Angstroms)
 Number     Number       Type             X           Y           Z
 ---------------------------------------------------------------------
      1          6           0       -1.475389   -0.372081    1.257382
      2          6           0       -3.227674   -0.030212   -0.880559
      3          6           0       -2.683132    0.308382    1.438719
      4          6           0       -1.108940   -0.872182   -0.003204
      5          6           0       -2.020074   -0.708314   -1.062253
      6          6           0       -3.556248    0.483704    0.369457
      7          6           0        0.194531   -1.630693   -0.223109
      8          6           0        1.396142   -1.223562    0.655635
      9          6           0        1.651076    0.269558    0.632952
     10          8           0        1.643668    0.763180   -0.637121
     11          6           0        1.833364    2.181437   -0.756488
     12          8           0        0.568404   -1.588000   -1.606217
     13          6           0        2.684295   -1.953260    0.277451
     14          8           0        1.862667    0.928624    1.643488
     15          6           0        0.502855    2.896186   -0.610263
     16          1           0       -0.833092   -0.498807    2.125800
     17          1           0       -3.912857    0.089270   -1.715807
     18          1           0       -2.942818    0.697595    2.420223
     19          1           0       -1.796978   -1.116914   -2.046787
     20          1           0       -4.495817    1.010325    0.513083
     21          1           0       -0.027702   -2.685035   -0.013838
     22          1           0        1.160474   -1.481126    1.696559
     23          1           0        2.242505    2.365681   -1.755167
     24          1           0        2.570317    2.548694   -0.033313
     25          1           0        0.758064   -0.651689   -1.808674
     26          1           0        3.490139   -1.696504    0.974177
     27          1           0        2.541128   -3.038080    0.311882
     28          1           0        3.029040   -1.683038   -0.726461
     29          1           0       -0.220898    2.513865   -1.337658
     30          1           0        0.621921    3.972570   -0.762308
     31          1           0        0.073830    2.728984    0.382771
 ---------------------------------------------------------------------

 SCF Done:  E(RwB97XD) =  -692.445833557     A.U. after   16 cycles

      1  C    Isotropic =    73.4692   Anisotropy =   173.1902

      2  C    Isotropic =    69.6376   Anisotropy =   174.9710

      3  C    Isotropic =    69.8511   Anisotropy =   175.2462

      4  C    Isotropic =    52.5975   Anisotropy =   178.3592

      5  C    Isotropic =    71.4447   Anisotropy =   180.8927

      6  C    Isotropic =    72.1325   Anisotropy =   176.2229

      7  C    Isotropic =   123.7948   Anisotropy =    36.3727

      8  C    Isotropic =   149.7122   Anisotropy =    25.0213

      9  C    Isotropic =    18.7642   Anisotropy =   101.2704

     10  O    Isotropic =   137.2290   Anisotropy =   163.4164

     11  C    Isotropic =   138.1035   Anisotropy =    66.7904

     12  O    Isotropic =   291.5025   Anisotropy =    58.0698

     13  C    Isotropic =   180.5040   Anisotropy =    26.4195

     14  O    Isotropic =   -57.4306   Anisotropy =   538.0534

     15  C    Isotropic =   182.3579   Anisotropy =    24.5237

     16  H    Isotropic =    23.7522   Anisotropy =     9.1257

     17  H    Isotropic =    23.6792   Anisotropy =     4.7443

     18  H    Isotropic =    23.8472   Anisotropy =     5.1536

     19  H    Isotropic =    23.1209   Anisotropy =     9.8304

     20  H    Isotropic =    23.8581   Anisotropy =     4.0083

     21  H    Isotropic =    26.7606   Anisotropy =     5.0963

     22  H    Isotropic =    28.0250   Anisotropy =     6.5593

     23  H    Isotropic =    27.9829   Anisotropy =     9.0230

     24  H    Isotropic =    27.0796   Anisotropy =     7.6893

     25  H    Isotropic =    28.5275   Anisotropy =    16.4537

     26  H    Isotropic =    30.3094   Anisotropy =     9.9988

     27  H    Isotropic =    30.2833   Anisotropy =    10.6837

     28  H    Isotropic =    29.8675   Anisotropy =     6.5767

     29  H    Isotropic =    31.5601   Anisotropy =     6.5789

     30  H    Isotropic =    31.0915   Anisotropy =    12.3423

     31  H    Isotropic =    31.2667   Anisotropy =     5.2287

 The electronic state is 1-A.
 Alpha  occ. eigenvalues --  -19.33692 -19.27844 -19.27526 -10.44402 -10.36211
 Alpha  occ. eigenvalues --  -10.35386 -10.32013 -10.31809 -10.30730 -10.30615
 Alpha  occ. eigenvalues --  -10.30589 -10.30498 -10.30397 -10.29256 -10.28758
 Alpha  occ. eigenvalues --   -1.21650  -1.13062  -1.12358  -0.96117  -0.91360
 Alpha  occ. eigenvalues --   -0.86803  -0.85450  -0.84576  -0.77860  -0.76476
 Alpha  occ. eigenvalues --   -0.71780  -0.69632  -0.68249  -0.65596  -0.61505
 Alpha  occ. eigenvalues --   -0.59632  -0.59475  -0.57223  -0.55852  -0.54633
 Alpha  occ. eigenvalues --   -0.54071  -0.53078  -0.52372  -0.50789  -0.50418
 Alpha  occ. eigenvalues --   -0.49851  -0.48085  -0.46672  -0.46445  -0.45497
 Alpha  occ. eigenvalues --   -0.45305  -0.43701  -0.43292  -0.42420  -0.41939
 Alpha  occ. eigenvalues --   -0.40495  -0.39353  -0.37127  -0.36135  -0.33210
 Alpha  occ. eigenvalues --   -0.32412
 Alpha virt. eigenvalues --    0.04870   0.04961   0.06587   0.07284   0.07650
 Alpha virt. eigenvalues --    0.08191   0.08726   0.09463   0.09701   0.10191
 Alpha virt. eigenvalues --    0.10413   0.11234   0.11758   0.12353   0.12746

 Mulliken atomic charges:
              1
     1  C   -0.425224
     2  C   -0.143028
     3  C   -0.141199
     4  C   -0.136308
     5  C    0.131279
     6  C   -0.250243
     7  C   -0.064143
     8  C    0.243985
     9  C   -0.000681
    10  O   -0.270260
    11  C   -0.039541
    12  O   -0.520623
    13  C   -0.597115
    14  O   -0.435953
    15  C   -0.478719
    16  H    0.170309
    17  H    0.183471
    18  H    0.182730
    19  H    0.189078
    20  H    0.181201
    21  H    0.184272
    22  H    0.194744
    23  H    0.176346
    24  H    0.183738
    25  H    0.400332
    26  H    0.180622
    27  H    0.179093
    28  H    0.187201
    29  H    0.176116
    30  H    0.178132
    31  H    0.180388
 Sum of Mulliken atomic charges =   0.00000

 Dipole moment (field-independent basis, Debye):
    X=             -0.3124    Y=              1.1241    Z=             -0.8288  Tot=              1.4311
 Quadrupole moment (field-independent basis, Debye-Ang):
   XX=            -85.1660   YY=            -86.4084   ZZ=            -92.1029
   XY=             -2.5676   XZ=             -3.5207   YZ=             -9.8633

 Normal termination of Gaussian 09 at Tue May 17 16:18:15 2022.
