 Gaussian 09, Revision C.01,
 Gaussian 09:  EM64L-G09RevC.01 23-Sep-2011

 ----------------------------------------------------------------
 # wb97xd/6-31+g** scrf=(pcm,solvent=chloroform,smd,dovacuum) nmr
 ----------------------------------------------------------------

 99/9=1/99;
 -------
 comment
 -------
 Charge =  0 Multiplicity = 1

                         Standard orientation:
 ---------------------------------------------------------------------
 Center     Atomic      Atomic             Coordinates (Angstroms)
 Number     Number       Type             X           Y           Z
 ---------------------------------------------------------------------
      1          6           0       -1.265966   -1.293059   -0.703847
      2          6           0       -3.494629   -0.412068    0.719758
      3          6           0       -2.212795   -2.211465   -0.246350
      4          6           0       -1.420825    0.079866   -0.455328
      5          6           0       -2.548765    0.507271    0.263091
      6          6           0       -3.326375   -1.770799    0.464793
      7          6           0       -0.378276    1.062189   -0.956408
      8          6           0        0.704244    1.467208    0.057459
      9          6           0        1.543531    0.271234    0.460850
     10          8           0        2.168628   -0.255693   -0.632611
     11          6           0        3.020449   -1.384151   -0.382977
     12          8           0       -1.019221    2.242225   -1.459599
     13          6           0        0.169305    2.201860    1.288961
     14          8           0        1.679067   -0.142682    1.603987
     15          6           0        4.412576   -0.915530   -0.004124
     16          1           0       -0.403763   -1.661193   -1.256421
     17          1           0       -4.360488   -0.067221    1.279231
     18          1           0       -2.079659   -3.272396   -0.442205
     19          1           0       -2.694805    1.564404    0.478640
     20          1           0       -4.061095   -2.486636    0.823977
     21          1           0        0.104837    0.615897   -1.834941
     22          1           0        1.385424    2.175952   -0.434602
     23          1           0        3.066501   -1.960462   -1.312819
     24          1           0        2.594980   -2.043402    0.382295
     25          1           0       -1.824168    1.950125   -1.923065
     26          1           0        0.999814    2.564355    1.905738
     27          1           0       -0.434863    3.069229    1.005233
     28          1           0       -0.436165    1.548792    1.925528
     29          1           0        4.822186   -0.260840   -0.780354
     30          1           0        5.085231   -1.767276    0.130410
     31          1           0        4.393412   -0.335458    0.923866
 ---------------------------------------------------------------------

 SCF Done:  E(RwB97XD) =  -692.444203906     A.U. after   16 cycles

      1  C    Isotropic =    71.0113   Anisotropy =   163.9798

      2  C    Isotropic =    70.2959   Anisotropy =   176.5841

      3  C    Isotropic =    70.1795   Anisotropy =   175.0078

      4  C    Isotropic =    55.2232   Anisotropy =   180.1267

      5  C    Isotropic =    71.6637   Anisotropy =   181.3543

      6  C    Isotropic =    71.1560   Anisotropy =   177.0827

      7  C    Isotropic =   122.1468   Anisotropy =    37.9535

      8  C    Isotropic =   150.8257   Anisotropy =    28.9720

      9  C    Isotropic =    21.4218   Anisotropy =    94.3560

     10  O    Isotropic =   129.7624   Anisotropy =   166.3312

     11  C    Isotropic =   137.5605   Anisotropy =    65.9088

     12  O    Isotropic =   279.7089   Anisotropy =    79.1721

     13  C    Isotropic =   187.0171   Anisotropy =    10.5222

     14  O    Isotropic =   -49.9518   Anisotropy =   580.6839

     15  C    Isotropic =   181.4344   Anisotropy =    26.7554

     16  H    Isotropic =    23.9684   Anisotropy =     7.8085

     17  H    Isotropic =    23.7141   Anisotropy =     5.0427

     18  H    Isotropic =    23.8850   Anisotropy =     5.1819

     19  H    Isotropic =    23.4018   Anisotropy =     9.6722

     20  H    Isotropic =    23.7972   Anisotropy =     4.1047

     21  H    Isotropic =    26.0105   Anisotropy =     6.7036

     22  H    Isotropic =    28.3249   Anisotropy =     6.3875

     23  H    Isotropic =    27.6723   Anisotropy =     7.3340

     24  H    Isotropic =    26.9354   Anisotropy =     5.4934

     25  H    Isotropic =    29.9029   Anisotropy =    15.1869

     26  H    Isotropic =    30.6521   Anisotropy =    10.9115

     27  H    Isotropic =    30.1583   Anisotropy =     8.9207

     28  H    Isotropic =    30.6331   Anisotropy =     6.7229

     29  H    Isotropic =    30.4469   Anisotropy =     8.5518

     30  H    Isotropic =    30.6373   Anisotropy =    11.5604

     31  H    Isotropic =    30.2873   Anisotropy =     6.5344

 The electronic state is 1-A.
 Alpha  occ. eigenvalues --  -19.32752 -19.28228 -19.27733 -10.44204 -10.36188
 Alpha  occ. eigenvalues --  -10.35071 -10.32083 -10.31705 -10.30901 -10.30835
 Alpha  occ. eigenvalues --  -10.30767 -10.30752 -10.30634 -10.28669 -10.28378
 Alpha  occ. eigenvalues --   -1.20966  -1.12978  -1.12530  -0.96347  -0.91370
 Alpha  occ. eigenvalues --   -0.86562  -0.85279  -0.84833  -0.78085  -0.76036
 Alpha  occ. eigenvalues --   -0.70909  -0.70139  -0.68166  -0.64370  -0.62610
 Alpha  occ. eigenvalues --   -0.59340  -0.58146  -0.57761  -0.56846  -0.55516
 Alpha  occ. eigenvalues --   -0.53256  -0.53015  -0.52500  -0.51005  -0.50409
 Alpha  occ. eigenvalues --   -0.48572  -0.47317  -0.46734  -0.46260  -0.45491
 Alpha  occ. eigenvalues --   -0.44572  -0.44064  -0.43481  -0.42335  -0.41929
 Alpha  occ. eigenvalues --   -0.40233  -0.38904  -0.36977  -0.36587  -0.33406
 Alpha  occ. eigenvalues --   -0.32597
 Alpha virt. eigenvalues --    0.04840   0.05037   0.06528   0.06757   0.07978
 Alpha virt. eigenvalues --    0.08135   0.08437   0.09336   0.09772   0.10306
 Alpha virt. eigenvalues --    0.10838   0.11224   0.11700   0.12101   0.12997

 Mulliken atomic charges:
              1
     1  C    0.007000
     2  C   -0.325638
     3  C   -0.280345
     4  C   -0.123528
     5  C   -0.083660
     6  C   -0.146697
     7  C    0.217277
     8  C    0.062885
     9  C   -0.121104
    10  O   -0.245092
    11  C    0.066104
    12  O   -0.554972
    13  C   -0.546618
    14  O   -0.450439
    15  C   -0.571826
    16  H    0.175008
    17  H    0.185889
    18  H    0.184310
    19  H    0.186862
    20  H    0.183369
    21  H    0.160983
    22  H    0.208635
    23  H    0.171663
    24  H    0.180085
    25  H    0.391858
    26  H    0.173664
    27  H    0.178681
    28  H    0.183722
    29  H    0.173957
    30  H    0.177887
    31  H    0.180080
 Sum of Mulliken atomic charges =   0.00000

 Dipole moment (field-independent basis, Debye):
    X=             -0.2406    Y=             -1.8247    Z=             -2.1826  Tot=              2.8551
 Quadrupole moment (field-independent basis, Debye-Ang):
   XX=            -76.4537   YY=            -85.9996   ZZ=            -95.6792
   XY=             -2.1281   XZ=             -5.5328   YZ=              4.6538

 Normal termination of Gaussian 09 at Tue May 17 18:21:54 2022.
