 Gaussian 09, Revision C.01,
 Gaussian 09:  EM64L-G09RevC.01 23-Sep-2011

 ----------------------------------------------------------------
 # wb97xd/6-31+g** scrf=(pcm,solvent=chloroform,smd,dovacuum) nmr
 ----------------------------------------------------------------

 99/9=1/99;
 -------
 comment
 -------
 Charge =  0 Multiplicity = 1

                         Standard orientation:
 ---------------------------------------------------------------------
 Center     Atomic      Atomic             Coordinates (Angstroms)
 Number     Number       Type             X           Y           Z
 ---------------------------------------------------------------------
      1          6           0        1.957101   -0.991464   -1.111949
      2          6           0        2.566359    0.658814    1.051647
      3          6           0        3.119278   -0.217818   -1.126122
      4          6           0        1.087325   -0.954056   -0.011550
      5          6           0        1.404135   -0.113650    1.067684
      6          6           0        3.424031    0.605452   -0.044337
      7          6           0       -0.180505   -1.787545   -0.018348
      8          6           0       -1.395522   -1.086680   -0.644510
      9          6           0       -1.667069    0.261664   -0.005856
     10          8           0       -1.437764    1.255992   -0.913563
     11          6           0       -1.684992    2.593454   -0.456736
     12          8           0       -0.471479   -2.304222    1.279444
     13          6           0       -2.665854   -1.932492   -0.568351
     14          8           0       -2.056058    0.440825    1.139927
     15          6           0       -0.461961    3.147325    0.249045
     16          1           0        1.736238   -1.624171   -1.969160
     17          1           0        2.797285    1.307295    1.893009
     18          1           0        3.786820   -0.255780   -1.983279
     19          1           0        0.736082   -0.044497    1.926057
     20          1           0        4.327847    1.208968   -0.057141
     21          1           0        0.025502   -2.681944   -0.621612
     22          1           0       -1.178038   -0.913869   -1.707833
     23          1           0       -2.573256    2.637454    0.183836
     24          1           0       -1.900135    3.197232   -1.344480
     25          1           0        0.377231   -2.479263    1.721500
     26          1           0       -3.495675   -1.427369   -1.075221
     27          1           0       -2.515963   -2.903699   -1.051011
     28          1           0       -2.977810   -2.108548    0.466819
     29          1           0       -0.247485    2.583657    1.161962
     30          1           0       -0.612395    4.196595    0.518328
     31          1           0        0.422207    3.069161   -0.391944
 ---------------------------------------------------------------------

 SCF Done:  E(RwB97XD) =  -692.443234784     A.U. after   16 cycles

      1  C    Isotropic =    70.9117   Anisotropy =   163.9993

      2  C    Isotropic =    69.0220   Anisotropy =   178.9084

      3  C    Isotropic =    70.4768   Anisotropy =   175.8354

      4  C    Isotropic =    52.2988   Anisotropy =   183.6481

      5  C    Isotropic =    72.9016   Anisotropy =   183.0415

      6  C    Isotropic =    71.3651   Anisotropy =   177.0821

      7  C    Isotropic =   121.0651   Anisotropy =    35.7097

      8  C    Isotropic =   148.1345   Anisotropy =    16.1921

      9  C    Isotropic =    20.9036   Anisotropy =   101.9555

     10  O    Isotropic =   120.9035   Anisotropy =   146.5370

     11  C    Isotropic =   138.1165   Anisotropy =    65.0903

     12  O    Isotropic =   291.1857   Anisotropy =    80.6109

     13  C    Isotropic =   180.9604   Anisotropy =    26.1312

     14  O    Isotropic =   -42.5954   Anisotropy =   571.6654

     15  C    Isotropic =   181.1262   Anisotropy =    21.9513

     16  H    Isotropic =    23.8831   Anisotropy =     7.5558

     17  H    Isotropic =    23.7823   Anisotropy =     4.9872

     18  H    Isotropic =    23.7524   Anisotropy =     4.4260

     19  H    Isotropic =    23.5510   Anisotropy =     8.3658

     20  H    Isotropic =    23.8256   Anisotropy =     3.9065

     21  H    Isotropic =    26.5651   Anisotropy =     7.6218

     22  H    Isotropic =    28.6762   Anisotropy =     4.3542

     23  H    Isotropic =    27.1508   Anisotropy =     7.1927

     24  H    Isotropic =    28.2030   Anisotropy =     9.2867

     25  H    Isotropic =    29.9203   Anisotropy =    15.5400

     26  H    Isotropic =    30.4686   Anisotropy =    10.0061

     27  H    Isotropic =    30.4497   Anisotropy =    10.5525

     28  H    Isotropic =    29.7376   Anisotropy =     7.0683

     29  H    Isotropic =    30.5569   Anisotropy =     5.1922

     30  H    Isotropic =    30.9652   Anisotropy =    11.6817

     31  H    Isotropic =    31.5064   Anisotropy =     6.7039

 The electronic state is 1-A.
 Alpha  occ. eigenvalues --  -19.32559 -19.27968 -19.27238 -10.43687 -10.36159
 Alpha  occ. eigenvalues --  -10.34806 -10.31931 -10.31757 -10.30933 -10.30826
 Alpha  occ. eigenvalues --  -10.30811 -10.30753 -10.30647 -10.28864 -10.28452
 Alpha  occ. eigenvalues --   -1.20610  -1.12995  -1.12078  -0.96377  -0.91310
 Alpha  occ. eigenvalues --   -0.86585  -0.85339  -0.84890  -0.77730  -0.76291
 Alpha  occ. eigenvalues --   -0.70584  -0.70193  -0.68301  -0.64038  -0.62279
 Alpha  occ. eigenvalues --   -0.60847  -0.57918  -0.57214  -0.56026  -0.54930
 Alpha  occ. eigenvalues --   -0.53483  -0.52660  -0.52355  -0.50763  -0.50350
 Alpha  occ. eigenvalues --   -0.48901  -0.47626  -0.46570  -0.45940  -0.45411
 Alpha  occ. eigenvalues --   -0.45046  -0.44195  -0.43169  -0.42377  -0.41653
 Alpha  occ. eigenvalues --   -0.40352  -0.38680  -0.37619  -0.35284  -0.33426
 Alpha  occ. eigenvalues --   -0.32471
 Alpha virt. eigenvalues --    0.04839   0.04960   0.06480   0.07116   0.07397
 Alpha virt. eigenvalues --    0.08413   0.08736   0.09349   0.09716   0.10274
 Alpha virt. eigenvalues --    0.10511   0.10933   0.12001   0.12593   0.13003

 Mulliken atomic charges:
              1
     1  C    0.125218
     2  C   -0.239002
     3  C   -0.272227
     4  C   -0.243109
     5  C   -0.330760
     6  C   -0.198744
     7  C    0.263223
     8  C    0.401025
     9  C   -0.247033
    10  O   -0.193165
    11  C    0.009479
    12  O   -0.559512
    13  C   -0.665252
    14  O   -0.424477
    15  C   -0.503299
    16  H    0.177046
    17  H    0.181540
    18  H    0.185654
    19  H    0.186379
    20  H    0.182829
    21  H    0.147186
    22  H    0.200884
    23  H    0.178605
    24  H    0.172307
    25  H    0.392649
    26  H    0.175751
    27  H    0.173222
    28  H    0.192378
    29  H    0.180304
    30  H    0.175566
    31  H    0.175334
 Sum of Mulliken atomic charges =   0.00000

 Dipole moment (field-independent basis, Debye):
    X=              2.5473    Y=              0.9321    Z=             -2.8689  Tot=              3.9481
 Quadrupole moment (field-independent basis, Debye-Ang):
   XX=            -87.4750   YY=            -81.5119   ZZ=            -89.4799
   XY=             -1.9381   XZ=              6.7518   YZ=              4.2329

 Normal termination of Gaussian 09 at Tue May 17 15:51:49 2022.
