 Gaussian 09, Revision C.01,
 Gaussian 09:  EM64L-G09RevC.01 23-Sep-2011

 ----------------------------------------------------------------
 # wb97xd/6-31+g** scrf=(pcm,solvent=chloroform,smd,dovacuum) nmr
 ----------------------------------------------------------------

 99/9=1/99;
 -------
 comment
 -------
 Charge =  0 Multiplicity = 1

                         Standard orientation:
 ---------------------------------------------------------------------
 Center     Atomic      Atomic             Coordinates (Angstroms)
 Number     Number       Type             X           Y           Z
 ---------------------------------------------------------------------
      1          6           0       -2.099828   -0.078158   -1.302181
      2          6           0       -2.729344   -1.215306    1.160322
      3          6           0       -2.943752   -1.188825   -1.240060
      4          6           0       -1.557027    0.480975   -0.132545
      5          6           0       -1.885228   -0.104096    1.099604
      6          6           0       -3.257352   -1.757702   -0.008582
      7          6           0       -0.617598    1.670713   -0.240233
      8          6           0        0.787537    1.289039   -0.742490
      9          6           0        1.452250    0.354286    0.241804
     10          8           0        2.053011   -0.679914   -0.405983
     11          6           0        2.694437   -1.623262    0.460436
     12          8           0       -0.570550    2.422161    0.974322
     13          6           0        1.685221    2.508794   -0.934521
     14          8           0        1.462244    0.534332    1.454574
     15          6           0        3.283828   -2.727078   -0.395565
     16          1           0       -1.871125    0.352419   -2.274983
     17          1           0       -2.975974   -1.654520    2.123590
     18          1           0       -3.358598   -1.608179   -2.152977
     19          1           0       -1.489517    0.299855    2.028867
     20          1           0       -3.916141   -2.620480    0.041476
     21          1           0       -1.064723    2.357284   -0.970981
     22          1           0        0.690996    0.770449   -1.705189
     23          1           0        1.960579   -2.046189    1.155750
     24          1           0        3.491783   -1.124457    1.022568
     25          1           0        0.040322    1.957889    1.581377
     26          1           0        2.664020    2.209437   -1.325538
     27          1           0        1.238604    3.212506   -1.644329
     28          1           0        1.861055    3.037904    0.008447
     29          1           0        2.500708   -3.221021   -0.980268
     30          1           0        3.787031   -3.474731    0.223831
     31          1           0        4.004473   -2.317078   -1.110872
 ---------------------------------------------------------------------

 SCF Done:  E(RwB97XD) =  -692.448819735     A.U. after   15 cycles

      1  C    Isotropic =    72.1324   Anisotropy =   168.7801

      2  C    Isotropic =    70.0975   Anisotropy =   175.8099

      3  C    Isotropic =    70.8268   Anisotropy =   174.2294

      4  C    Isotropic =    51.4393   Anisotropy =   182.2182

      5  C    Isotropic =    73.0259   Anisotropy =   180.7575

      6  C    Isotropic =    72.9717   Anisotropy =   175.3354

      7  C    Isotropic =   120.2012   Anisotropy =    37.2588

      8  C    Isotropic =   147.9182   Anisotropy =    15.2475

      9  C    Isotropic =    16.1327   Anisotropy =   109.0442

     10  O    Isotropic =   123.5737   Anisotropy =   172.7004

     11  C    Isotropic =   137.2157   Anisotropy =    59.0627

     12  O    Isotropic =   307.5354   Anisotropy =    29.1863

     13  C    Isotropic =   179.3492   Anisotropy =    29.6938

     14  O    Isotropic =   -32.8737   Anisotropy =   527.9491

     15  C    Isotropic =   182.9741   Anisotropy =    23.4031

     16  H    Isotropic =    23.8515   Anisotropy =     8.4366

     17  H    Isotropic =    23.7902   Anisotropy =     5.1529

     18  H    Isotropic =    23.8009   Anisotropy =     4.7648

     19  H    Isotropic =    23.7481   Anisotropy =     9.4807

     20  H    Isotropic =    23.8752   Anisotropy =     4.0856

     21  H    Isotropic =    26.7843   Anisotropy =     6.5483

     22  H    Isotropic =    28.6123   Anisotropy =     4.6654

     23  H    Isotropic =    28.0316   Anisotropy =     5.0812

     24  H    Isotropic =    27.7318   Anisotropy =     6.8757

     25  H    Isotropic =    26.8167   Anisotropy =    18.3673

     26  H    Isotropic =    30.3414   Anisotropy =     9.4378

     27  H    Isotropic =    30.2074   Anisotropy =    10.4419

     28  H    Isotropic =    29.8801   Anisotropy =     6.9198

     29  H    Isotropic =    30.7109   Anisotropy =     7.5740

     30  H    Isotropic =    30.6193   Anisotropy =    11.0796

     31  H    Isotropic =    30.5267   Anisotropy =     8.8731

 The electronic state is 1-A.
 Alpha  occ. eigenvalues --  -19.33559 -19.28720 -19.27489 -10.44748 -10.36006
 Alpha  occ. eigenvalues --  -10.35260 -10.32153 -10.31408 -10.30644 -10.30567
 Alpha  occ. eigenvalues --  -10.30514 -10.30446 -10.30334 -10.29355 -10.28963
 Alpha  occ. eigenvalues --   -1.21876  -1.13926  -1.12030  -0.96081  -0.91594
 Alpha  occ. eigenvalues --   -0.87074  -0.85503  -0.84568  -0.77813  -0.76163
 Alpha  occ. eigenvalues --   -0.70726  -0.69903  -0.67952  -0.66400  -0.61445
 Alpha  occ. eigenvalues --   -0.60759  -0.59141  -0.57547  -0.56577  -0.54919
 Alpha  occ. eigenvalues --   -0.54552  -0.52744  -0.51733  -0.50786  -0.50209
 Alpha  occ. eigenvalues --   -0.48799  -0.47776  -0.46880  -0.46524  -0.45840
 Alpha  occ. eigenvalues --   -0.44913  -0.44055  -0.43684  -0.42686  -0.42077
 Alpha  occ. eigenvalues --   -0.41465  -0.39497  -0.37037  -0.36336  -0.33133
 Alpha  occ. eigenvalues --   -0.32313
 Alpha virt. eigenvalues --    0.05068   0.05626   0.06213   0.06645   0.07719
 Alpha virt. eigenvalues --    0.08351   0.08678   0.09617   0.09972   0.10342
 Alpha virt. eigenvalues --    0.10513   0.10758   0.11154   0.11944   0.12838

 Mulliken atomic charges:
              1
     1  C   -0.076746
     2  C   -0.305288
     3  C   -0.244846
     4  C   -0.216494
     5  C    0.171094
     6  C   -0.154618
     7  C   -0.172151
     8  C    0.295394
     9  C   -0.052871
    10  O   -0.241843
    11  C    0.115391
    12  O   -0.497938
    13  C   -0.588837
    14  O   -0.463822
    15  C   -0.651562
    16  H    0.173321
    17  H    0.183259
    18  H    0.183603
    19  H    0.165115
    20  H    0.181330
    21  H    0.164595
    22  H    0.200601
    23  H    0.180680
    24  H    0.178531
    25  H    0.389093
    26  H    0.178742
    27  H    0.180127
    28  H    0.189469
    29  H    0.177703
    30  H    0.182319
    31  H    0.176648
 Sum of Mulliken atomic charges =   0.00000

 Dipole moment (field-independent basis, Debye):
    X=              2.0623    Y=             -2.8982    Z=             -2.6711  Tot=              4.4484
 Quadrupole moment (field-independent basis, Debye-Ang):
   XX=            -85.0008   YY=            -89.7749   ZZ=            -86.7136
   XY=              3.0589   XZ=              1.2598   YZ=             -7.8141

 Normal termination of Gaussian 09 at Tue May 17 19:11:40 2022.
