 Gaussian 09, Revision C.01,
 Gaussian 09:  EM64L-G09RevC.01 23-Sep-2011

 ----------------------------------------------------------------
 # wb97xd/6-31+g** scrf=(pcm,solvent=chloroform,smd,dovacuum) nmr
 ----------------------------------------------------------------

 99/9=1/99;
 -------
 comment
 -------
 Charge =  0 Multiplicity = 1

                         Standard orientation:
 ---------------------------------------------------------------------
 Center     Atomic      Atomic             Coordinates (Angstroms)
 Number     Number       Type             X           Y           Z
 ---------------------------------------------------------------------
      1          6           0       -1.346292   -1.017445   -1.010059
      2          6           0       -3.302382   -0.792730    0.961660
      3          6           0       -2.129100   -2.123044   -0.671103
      4          6           0       -1.527241    0.216844   -0.364189
      5          6           0       -2.519720    0.312973    0.623522
      6          6           0       -3.105544   -2.010746    0.315656
      7          6           0       -0.649847    1.399995   -0.731604
      8          6           0        0.667228    1.497793    0.061081
      9          6           0        1.589367    0.369871   -0.359802
     10          8           0        2.034401   -0.363818    0.692676
     11          6           0        2.889514   -1.472484    0.377898
     12          8           0       -1.393294    2.614795   -0.562524
     13          6           0        0.470241    1.627274    1.574241
     14          8           0        1.896248    0.165964   -1.529672
     15          6           0        4.333442   -1.013728    0.302927
     16          1           0       -0.594286   -1.127401   -1.789770
     17          1           0       -4.067696   -0.699686    1.727571
     18          1           0       -1.978436   -3.071010   -1.180917
     19          1           0       -2.690344    1.258895    1.134297
     20          1           0       -3.716628   -2.870193    0.577605
     21          1           0       -0.438448    1.332336   -1.807046
     22          1           0        1.179098    2.421328   -0.245053
     23          1           0        2.575975   -1.966930   -0.548689
     24          1           0        2.776444   -2.202717    1.185848
     25          1           0       -0.953497    3.294316   -1.100750
     26          1           0        1.429779    1.811712    2.070780
     27          1           0       -0.190917    2.465175    1.817490
     28          1           0        0.049313    0.717617    2.014564
     29          1           0        4.472048   -0.281246   -0.498512
     30          1           0        5.000650   -1.860932    0.120991
     31          1           0        4.630108   -0.524220    1.236371
 ---------------------------------------------------------------------

 SCF Done:  E(RwB97XD) =  -692.444009841     A.U. after   16 cycles

      1  C    Isotropic =    71.6632   Anisotropy =   165.5426

      2  C    Isotropic =    70.6864   Anisotropy =   175.2091

      3  C    Isotropic =    70.5146   Anisotropy =   174.2037

      4  C    Isotropic =    56.8658   Anisotropy =   178.2958

      5  C    Isotropic =    71.4454   Anisotropy =   184.3810

      6  C    Isotropic =    72.0853   Anisotropy =   175.9472

      7  C    Isotropic =   122.1499   Anisotropy =    37.5723

      8  C    Isotropic =   146.0578   Anisotropy =    32.4606

      9  C    Isotropic =    21.4930   Anisotropy =    99.1082

     10  O    Isotropic =   124.9953   Anisotropy =   180.3321

     11  C    Isotropic =   137.5139   Anisotropy =    66.0529

     12  O    Isotropic =   290.1710   Anisotropy =    91.4687

     13  C    Isotropic =   186.7313   Anisotropy =     9.0504

     14  O    Isotropic =   -39.0958   Anisotropy =   557.8731

     15  C    Isotropic =   181.5782   Anisotropy =    26.8389

     16  H    Isotropic =    24.0897   Anisotropy =     8.2236

     17  H    Isotropic =    23.7066   Anisotropy =     4.8669

     18  H    Isotropic =    23.8911   Anisotropy =     5.0663

     19  H    Isotropic =    23.4235   Anisotropy =     9.7299

     20  H    Isotropic =    23.8394   Anisotropy =     3.9872

     21  H    Isotropic =    25.9869   Anisotropy =     5.8628

     22  H    Isotropic =    28.6461   Anisotropy =     5.7764

     23  H    Isotropic =    27.0294   Anisotropy =     5.3683

     24  H    Isotropic =    28.0412   Anisotropy =     7.1734

     25  H    Isotropic =    29.6458   Anisotropy =    19.4517

     26  H    Isotropic =    30.5862   Anisotropy =    10.2778

     27  H    Isotropic =    30.1473   Anisotropy =     8.8375

     28  H    Isotropic =    30.8933   Anisotropy =     5.4225

     29  H    Isotropic =    30.3130   Anisotropy =     6.5023

     30  H    Isotropic =    30.7054   Anisotropy =    11.5966

     31  H    Isotropic =    30.5756   Anisotropy =     8.6749

 The electronic state is 1-A.
 Alpha  occ. eigenvalues --  -19.32934 -19.28294 -19.27391 -10.44160 -10.36206
 Alpha  occ. eigenvalues --  -10.35092 -10.31960 -10.31611 -10.30632 -10.30526
 Alpha  occ. eigenvalues --  -10.30508 -10.30441 -10.30372 -10.28700 -10.28495
 Alpha  occ. eigenvalues --   -1.21090  -1.13048  -1.12381  -0.96136  -0.91186
 Alpha  occ. eigenvalues --   -0.86779  -0.84946  -0.84561  -0.77740  -0.75980
 Alpha  occ. eigenvalues --   -0.71996  -0.69961  -0.67275  -0.64813  -0.60968
 Alpha  occ. eigenvalues --   -0.59939  -0.58988  -0.58036  -0.56978  -0.54720
 Alpha  occ. eigenvalues --   -0.52970  -0.52801  -0.52601  -0.50282  -0.50110
 Alpha  occ. eigenvalues --   -0.48857  -0.47733  -0.46558  -0.46098  -0.45562
 Alpha  occ. eigenvalues --   -0.44561  -0.44208  -0.43402  -0.42014  -0.41816
 Alpha  occ. eigenvalues --   -0.40317  -0.38622  -0.37383  -0.35905  -0.33094
 Alpha  occ. eigenvalues --   -0.32519
 Alpha virt. eigenvalues --    0.05096   0.05307   0.06398   0.06960   0.07727
 Alpha virt. eigenvalues --    0.08290   0.08466   0.09418   0.09879   0.10424
 Alpha virt. eigenvalues --    0.10672   0.10822   0.11946   0.12215   0.12766

 Mulliken atomic charges:
              1
     1  C    0.003798
     2  C   -0.321210
     3  C   -0.286897
     4  C   -0.174515
     5  C    0.139512
     6  C   -0.174446
     7  C    0.055404
     8  C    0.127653
     9  C   -0.149861
    10  O   -0.208012
    11  C    0.059691
    12  O   -0.575692
    13  C   -0.597978
    14  O   -0.453538
    15  C   -0.543191
    16  H    0.174873
    17  H    0.184129
    18  H    0.182647
    19  H    0.183274
    20  H    0.181860
    21  H    0.170527
    22  H    0.203491
    23  H    0.179025
    24  H    0.172932
    25  H    0.401809
    26  H    0.172380
    27  H    0.178073
    28  H    0.182970
    29  H    0.179248
    30  H    0.177995
    31  H    0.174048
 Sum of Mulliken atomic charges =   0.00000

 Dipole moment (field-independent basis, Debye):
    X=              1.8778    Y=             -0.3719    Z=              1.2263  Tot=              2.2734
 Quadrupole moment (field-independent basis, Debye-Ang):
   XX=            -88.0911   YY=            -76.8995   ZZ=            -92.5798
   XY=              2.3915   XZ=              1.0408   YZ=             -1.9861

 Normal termination of Gaussian 09 at Tue May 17 22:57:40 2022.
