 Gaussian 09, Revision C.01,
 Gaussian 09:  EM64L-G09RevC.01 23-Sep-2011

 ----------------------------------------------------------------
 # wb97xd/6-31+g** scrf=(pcm,solvent=chloroform,smd,dovacuum) nmr
 ----------------------------------------------------------------

 99/9=1/99;
 -------
 comment
 -------
 Charge =  0 Multiplicity = 1

                         Standard orientation:
 ---------------------------------------------------------------------
 Center     Atomic      Atomic             Coordinates (Angstroms)
 Number     Number       Type             X           Y           Z
 ---------------------------------------------------------------------
      1          6           0        0.995967    1.295570   -0.496573
      2          6           0        3.498482    0.507149    0.440962
      3          6           0        1.913079    2.252886   -0.057347
      4          6           0        1.314402   -0.071414   -0.468650
      5          6           0        2.581243   -0.450101    0.003073
      6          6           0        3.163281    1.858322    0.412494
      7          6           0        0.297477   -1.097915   -0.930174
      8          6           0       -0.668047   -1.600003    0.157401
      9          6           0       -1.648798   -0.517531    0.561922
     10          8           0       -2.444692   -0.192254   -0.499218
     11          6           0       -3.487876    0.758284   -0.231115
     12          8           0        0.984719   -2.220459   -1.501203
     13          6           0        0.024972   -2.202624    1.381664
     14          8           0       -1.751531   -0.035823    1.680854
     15          6           0       -2.966751    2.174577   -0.382843
     16          1           0        0.029531    1.629944   -0.864906
     17          1           0        4.474301    0.195328    0.803503
     18          1           0        1.650960    3.307341   -0.081852
     19          1           0        2.861127   -1.501636    0.029445
     20          1           0        3.876712    2.603020    0.754619
     21          1           0       -0.265763   -0.650995   -1.759555
     22          1           0       -1.270719   -2.415339   -0.268145
     23          1           0       -3.928279    0.596050    0.759370
     24          1           0       -4.278612    0.577642   -0.966656
     25          1           0        0.337767   -2.714996   -2.031466
     26          1           0       -0.715345   -2.638770    2.062163
     27          1           0        0.719740   -2.997735    1.093220
     28          1           0        0.576459   -1.448910    1.953165
     29          1           0       -2.182706    2.385715    0.350952
     30          1           0       -3.773396    2.900701   -0.248129
     31          1           0       -2.524334    2.317727   -1.374071
 ---------------------------------------------------------------------

 SCF Done:  E(RwB97XD) =  -692.444602974     A.U. after   16 cycles

      1  C    Isotropic =    71.9690   Anisotropy =   165.7970

      2  C    Isotropic =    70.7135   Anisotropy =   175.2299

      3  C    Isotropic =    70.9155   Anisotropy =   173.5036

      4  C    Isotropic =    57.3443   Anisotropy =   176.1036

      5  C    Isotropic =    71.0516   Anisotropy =   183.2041

      6  C    Isotropic =    71.8251   Anisotropy =   176.4298

      7  C    Isotropic =   122.6988   Anisotropy =    37.6204

      8  C    Isotropic =   146.8007   Anisotropy =    28.2441

      9  C    Isotropic =    21.2549   Anisotropy =    96.1700

     10  O    Isotropic =   130.5517   Anisotropy =   154.6316

     11  C    Isotropic =   136.8703   Anisotropy =    66.3677

     12  O    Isotropic =   286.6049   Anisotropy =    90.9954

     13  C    Isotropic =   186.0351   Anisotropy =    10.2964

     14  O    Isotropic =   -49.3705   Anisotropy =   580.1206

     15  C    Isotropic =   180.9262   Anisotropy =    23.1864

     16  H    Isotropic =    24.0456   Anisotropy =     7.0210

     17  H    Isotropic =    23.7092   Anisotropy =     4.9635

     18  H    Isotropic =    23.8941   Anisotropy =     5.6770

     19  H    Isotropic =    23.4298   Anisotropy =     9.8060

     20  H    Isotropic =    23.8157   Anisotropy =     4.1073

     21  H    Isotropic =    26.0030   Anisotropy =     6.8780

     22  H    Isotropic =    28.6984   Anisotropy =     5.6984

     23  H    Isotropic =    26.8900   Anisotropy =     6.8729

     24  H    Isotropic =    27.6694   Anisotropy =     8.5281

     25  H    Isotropic =    29.7153   Anisotropy =    18.9189

     26  H    Isotropic =    30.7997   Anisotropy =    11.0953

     27  H    Isotropic =    30.2459   Anisotropy =     8.8961

     28  H    Isotropic =    30.9594   Anisotropy =     5.8137

     29  H    Isotropic =    30.0734   Anisotropy =     6.0199

     30  H    Isotropic =    30.4804   Anisotropy =    11.6302

     31  H    Isotropic =    30.2587   Anisotropy =     6.8775

 The electronic state is 1-A.
 Alpha  occ. eigenvalues --  -19.32772 -19.28352 -19.27734 -10.44118 -10.36359
 Alpha  occ. eigenvalues --  -10.35131 -10.31964 -10.31650 -10.30688 -10.30545
 Alpha  occ. eigenvalues --  -10.30499 -10.30438 -10.30369 -10.28733 -10.28451
 Alpha  occ. eigenvalues --   -1.20965  -1.13077  -1.12559  -0.96169  -0.91266
 Alpha  occ. eigenvalues --   -0.86696  -0.85139  -0.84584  -0.78036  -0.76101
 Alpha  occ. eigenvalues --   -0.71184  -0.70007  -0.67494  -0.64356  -0.61297
 Alpha  occ. eigenvalues --   -0.60193  -0.59198  -0.58430  -0.56586  -0.54746
 Alpha  occ. eigenvalues --   -0.53674  -0.52888  -0.52573  -0.50346  -0.50204
 Alpha  occ. eigenvalues --   -0.48768  -0.47183  -0.46481  -0.45994  -0.45223
 Alpha  occ. eigenvalues --   -0.44770  -0.44048  -0.43690  -0.42144  -0.42065
 Alpha  occ. eigenvalues --   -0.40561  -0.38629  -0.37737  -0.35869  -0.33093
 Alpha  occ. eigenvalues --   -0.32539
 Alpha virt. eigenvalues --    0.05066   0.05317   0.06524   0.06723   0.07804
 Alpha virt. eigenvalues --    0.08161   0.08306   0.09303   0.09821   0.10472
 Alpha virt. eigenvalues --    0.11115   0.11444   0.11585   0.11915   0.13304

 Mulliken atomic charges:
              1
     1  C   -0.110115
     2  C   -0.322481
     3  C   -0.252505
     4  C   -0.208446
     5  C    0.147838
     6  C   -0.158985
     7  C    0.193232
     8  C    0.125437
     9  C   -0.196473
    10  O   -0.234454
    11  C   -0.007780
    12  O   -0.568950
    13  C   -0.571124
    14  O   -0.439681
    15  C   -0.480487
    16  H    0.167518
    17  H    0.184704
    18  H    0.184144
    19  H    0.183999
    20  H    0.181955
    21  H    0.166797
    22  H    0.199441
    23  H    0.179272
    24  H    0.172809
    25  H    0.398432
    26  H    0.172807
    27  H    0.177213
    28  H    0.185105
    29  H    0.180945
    30  H    0.178013
    31  H    0.171823
 Sum of Mulliken atomic charges =   0.00000

 Dipole moment (field-independent basis, Debye):
    X=             -2.5903    Y=             -0.0306    Z=             -2.3466  Tot=              3.4953
 Quadrupole moment (field-independent basis, Debye-Ang):
   XX=            -80.5551   YY=            -79.4768   ZZ=            -96.5574
   XY=              2.0967   XZ=             10.4283   YZ=              0.5122

 Normal termination of Gaussian 09 at Tue May 17 15:45:00 2022.
