 Gaussian 09, Revision C.01,
 Gaussian 09:  EM64L-G09RevC.01 23-Sep-2011

 ----------------------------------------------------------------
 # wb97xd/6-31+g** scrf=(pcm,solvent=chloroform,smd,dovacuum) nmr
 ----------------------------------------------------------------

 99/9=1/99;
 -------
 comment
 -------
 Charge =  0 Multiplicity = 1

                         Standard orientation:
 ---------------------------------------------------------------------
 Center     Atomic      Atomic             Coordinates (Angstroms)
 Number     Number       Type             X           Y           Z
 ---------------------------------------------------------------------
      1          6           0        1.795368   -0.053902    1.179631
      2          6           0        3.403525   -0.562953   -1.037391
      3          6           0        2.878039   -0.932813    1.281519
      4          6           0        1.481348    0.568444   -0.039857
      5          6           0        2.320808    0.313612   -1.139689
      6          6           0        3.678585   -1.190826    0.172844
      7          6           0        0.323566    1.549602   -0.175866
      8          6           0       -0.885333    1.345530    0.760398
      9          6           0       -1.425776   -0.069135    0.719459
     10          8           0       -1.577968   -0.515714   -0.558744
     11          6           0       -2.091036   -1.849766   -0.696810
     12          8           0       -0.120063    1.608240   -1.537527
     13          6           0       -2.028661    2.318135    0.472431
     14          8           0       -1.723902   -0.700963    1.725688
     15          6           0       -3.607721   -1.826482   -0.700995
     16          1           0        1.210309    0.129743    2.077764
     17          1           0        4.034363   -0.748098   -1.902923
     18          1           0        3.098191   -1.412059    2.232409
     19          1           0        2.139493    0.806862   -2.093682
     20          1           0        4.521369   -1.871786    0.255077
     21          1           0        0.741763    2.541980    0.037115
     22          1           0       -0.551491    1.519817    1.791701
     23          1           0       -1.700302   -2.510784    0.085254
     24          1           0       -1.725669   -2.234221   -1.654669
     25          1           0       -0.479738    0.724567   -1.745716
     26          1           0       -2.832556    2.194778    1.206807
     27          1           0       -1.680061    3.354611    0.524486
     28          1           0       -2.468625    2.151988   -0.516820
     29          1           0       -3.997578   -1.443387    0.247326
     30          1           0       -4.010687   -2.829901   -0.864569
     31          1           0       -3.979588   -1.163289   -1.488942
 ---------------------------------------------------------------------

 SCF Done:  E(RwB97XD) =  -692.444545748     A.U. after   16 cycles

      1  C    Isotropic =    73.7470   Anisotropy =   171.9207

      2  C    Isotropic =    69.6834   Anisotropy =   174.8055

      3  C    Isotropic =    69.8869   Anisotropy =   174.4621

      4  C    Isotropic =    52.3060   Anisotropy =   177.9802

      5  C    Isotropic =    71.6523   Anisotropy =   179.7641

      6  C    Isotropic =    72.8783   Anisotropy =   176.5982

      7  C    Isotropic =   123.6227   Anisotropy =    35.8651

      8  C    Isotropic =   149.5736   Anisotropy =    24.7262

      9  C    Isotropic =    18.4851   Anisotropy =   101.3416

     10  O    Isotropic =   138.6983   Anisotropy =   150.4154

     11  C    Isotropic =   138.1588   Anisotropy =    66.9215

     12  O    Isotropic =   291.8727   Anisotropy =    56.2958

     13  C    Isotropic =   180.4877   Anisotropy =    26.4036

     14  O    Isotropic =   -57.3238   Anisotropy =   535.8578

     15  C    Isotropic =   181.6344   Anisotropy =    26.8800

     16  H    Isotropic =    23.8576   Anisotropy =     9.3920

     17  H    Isotropic =    23.7221   Anisotropy =     4.7980

     18  H    Isotropic =    23.8493   Anisotropy =     5.3769

     19  H    Isotropic =    23.1651   Anisotropy =    10.0912

     20  H    Isotropic =    23.8353   Anisotropy =     4.1158

     21  H    Isotropic =    26.7860   Anisotropy =     4.7731

     22  H    Isotropic =    28.0997   Anisotropy =     6.6237

     23  H    Isotropic =    27.3047   Anisotropy =     5.6724

     24  H    Isotropic =    28.1156   Anisotropy =     7.0947

     25  H    Isotropic =    28.4783   Anisotropy =    16.2296

     26  H    Isotropic =    30.2540   Anisotropy =     9.6638

     27  H    Isotropic =    30.2303   Anisotropy =    10.7180

     28  H    Isotropic =    29.7754   Anisotropy =     6.3787

     29  H    Isotropic =    30.3616   Anisotropy =     6.6782

     30  H    Isotropic =    30.7390   Anisotropy =    11.9442

     31  H    Isotropic =    30.5423   Anisotropy =     8.1705

 The electronic state is 1-A.
 Alpha  occ. eigenvalues --  -19.33699 -19.27845 -19.27498 -10.44408 -10.36174
 Alpha  occ. eigenvalues --  -10.35399 -10.32007 -10.31788 -10.30715 -10.30592
 Alpha  occ. eigenvalues --  -10.30568 -10.30478 -10.30374 -10.29269 -10.28822
 Alpha  occ. eigenvalues --   -1.21654  -1.13052  -1.12338  -0.96088  -0.91352
 Alpha  occ. eigenvalues --   -0.86802  -0.85501  -0.84553  -0.77808  -0.76426
 Alpha  occ. eigenvalues --   -0.71928  -0.69591  -0.68253  -0.65454  -0.61530
 Alpha  occ. eigenvalues --   -0.59979  -0.59461  -0.56457  -0.56009  -0.54712
 Alpha  occ. eigenvalues --   -0.54472  -0.53001  -0.52420  -0.50703  -0.50330
 Alpha  occ. eigenvalues --   -0.49391  -0.48638  -0.46770  -0.46336  -0.45607
 Alpha  occ. eigenvalues --   -0.44766  -0.44050  -0.43309  -0.42403  -0.41975
 Alpha  occ. eigenvalues --   -0.40443  -0.39352  -0.37128  -0.36120  -0.33193
 Alpha  occ. eigenvalues --   -0.32386
 Alpha virt. eigenvalues --    0.04910   0.04993   0.06862   0.07008   0.07706
 Alpha virt. eigenvalues --    0.08443   0.08724   0.09375   0.09911   0.10125
 Alpha virt. eigenvalues --    0.10505   0.11184   0.11834   0.12005   0.12642

 Mulliken atomic charges:
              1
     1  C   -0.234880
     2  C   -0.205149
     3  C   -0.341118
     4  C   -0.129152
     5  C    0.199231
     6  C   -0.221351
     7  C   -0.071192
     8  C    0.311672
     9  C   -0.092557
    10  O   -0.259874
    11  C    0.012769
    12  O   -0.516419
    13  C   -0.608411
    14  O   -0.434486
    15  C   -0.536263
    16  H    0.169687
    17  H    0.184159
    18  H    0.183393
    19  H    0.188745
    20  H    0.181875
    21  H    0.184455
    22  H    0.195210
    23  H    0.181217
    24  H    0.174981
    25  H    0.401424
    26  H    0.180281
    27  H    0.179192
    28  H    0.188405
    29  H    0.180525
    30  H    0.178998
    31  H    0.174634
 Sum of Mulliken atomic charges =   0.00000

 Dipole moment (field-independent basis, Debye):
    X=             -0.2413    Y=             -1.0127    Z=             -0.8650  Tot=              1.3535
 Quadrupole moment (field-independent basis, Debye-Ang):
   XX=            -84.1655   YY=            -86.1689   ZZ=            -92.2014
   XY=             -2.0726   XZ=              4.8439   YZ=              9.1073

 Normal termination of Gaussian 09 at Tue May 17 16:37:27 2022.
