 Gaussian 09, Revision C.01,
 Gaussian 09:  EM64L-G09RevC.01 23-Sep-2011

 ----------------------------------------------------------------
 # wb97xd/6-31+g** scrf=(pcm,solvent=chloroform,smd,dovacuum) nmr
 ----------------------------------------------------------------

 99/9=1/99;
 -------
 comment
 -------
 Charge =  0 Multiplicity = 1

                         Standard orientation:
 ---------------------------------------------------------------------
 Center     Atomic      Atomic             Coordinates (Angstroms)
 Number     Number       Type             X           Y           Z
 ---------------------------------------------------------------------
      1          6           0       -2.401785    0.261541    1.274689
      2          6           0       -3.776580   -0.680410   -0.961716
      3          6           0       -3.794925    0.341596    1.223458
      4          6           0       -1.677807   -0.289580    0.205977
      5          6           0       -2.383952   -0.760300   -0.912626
      6          6           0       -4.481271   -0.128082    0.105525
      7          6           0       -0.164580   -0.343981    0.257947
      8          6           0        0.528400    0.662678   -0.680933
      9          6           0        1.989001    0.742614   -0.273519
     10          8           0        2.636537   -0.404110   -0.637150
     11          6           0        4.036340   -0.461297   -0.317595
     12          8           0        0.201968   -1.685982   -0.094927
     13          6           0       -0.070183    2.072109   -0.637550
     14          8           0        2.509801    1.680318    0.313268
     15          6           0        4.225558   -0.995688    1.089478
     16          1           0       -1.885311    0.634444    2.156360
     17          1           0       -4.310414   -1.054549   -1.831167
     18          1           0       -4.345031    0.769083    2.057681
     19          1           0       -1.845978   -1.204284   -1.747715
     20          1           0       -5.565652   -0.068383    0.068050
     21          1           0        0.170038   -0.197248    1.292777
     22          1           0        0.499075    0.313558   -1.721522
     23          1           0        4.515380    0.516079   -0.445390
     24          1           0        4.500224   -1.144109   -1.036835
     25          1           0        1.173951   -1.730443   -0.137082
     26          1           0        0.540141    2.772099   -1.219706
     27          1           0       -1.078374    2.092503   -1.062771
     28          1           0       -0.120763    2.454250    0.388183
     29          1           0        3.767062   -0.330060    1.827591
     30          1           0        5.288307   -1.100021    1.325347
     31          1           0        3.741597   -1.971938    1.197874
 ---------------------------------------------------------------------

 SCF Done:  E(RwB97XD) =  -692.444611488     A.U. after   16 cycles

      1  C    Isotropic =    69.6123   Anisotropy =   163.1822

      2  C    Isotropic =    69.8546   Anisotropy =   176.3246

      3  C    Isotropic =    70.5362   Anisotropy =   173.9009

      4  C    Isotropic =    54.8197   Anisotropy =   181.4109

      5  C    Isotropic =    72.7721   Anisotropy =   182.3135

      6  C    Isotropic =    71.9986   Anisotropy =   177.5037

      7  C    Isotropic =   119.5252   Anisotropy =    35.4678

      8  C    Isotropic =   148.3248   Anisotropy =    13.5939

      9  C    Isotropic =    18.5901   Anisotropy =    94.6742

     10  O    Isotropic =   129.0406   Anisotropy =   155.4031

     11  C    Isotropic =   137.0492   Anisotropy =    67.1718

     12  O    Isotropic =   276.1833   Anisotropy =    34.0735

     13  C    Isotropic =   181.8485   Anisotropy =    12.5418

     14  O    Isotropic =   -37.2211   Anisotropy =   557.4300

     15  C    Isotropic =   181.1751   Anisotropy =    26.1880

     16  H    Isotropic =    23.8601   Anisotropy =     8.0495

     17  H    Isotropic =    23.6669   Anisotropy =     5.1272

     18  H    Isotropic =    23.8171   Anisotropy =     4.7086

     19  H    Isotropic =    23.3583   Anisotropy =     9.9621

     20  H    Isotropic =    23.6989   Anisotropy =     4.2067

     21  H    Isotropic =    26.9276   Anisotropy =     5.2202

     22  H    Isotropic =    28.6892   Anisotropy =     4.4201

     23  H    Isotropic =    26.7754   Anisotropy =     6.6428

     24  H    Isotropic =    27.6568   Anisotropy =     8.3355

     25  H    Isotropic =    27.9038   Anisotropy =    21.2855

     26  H    Isotropic =    30.7540   Anisotropy =    10.7342

     27  H    Isotropic =    31.6156   Anisotropy =     6.6009

     28  H    Isotropic =    30.7615   Anisotropy =     7.7834

     29  H    Isotropic =    30.1441   Anisotropy =     6.1718

     30  H    Isotropic =    30.4906   Anisotropy =    11.7469

     31  H    Isotropic =    30.4054   Anisotropy =     7.3478

 The electronic state is 1-A.
 Alpha  occ. eigenvalues --  -19.33679 -19.28131 -19.27623 -10.44453 -10.36400
 Alpha  occ. eigenvalues --  -10.35454 -10.32091 -10.31557 -10.30681 -10.30612
 Alpha  occ. eigenvalues --  -10.30580 -10.30543 -10.30470 -10.28945 -10.28819
 Alpha  occ. eigenvalues --   -1.21702  -1.13218  -1.12438  -0.96172  -0.91379
 Alpha  occ. eigenvalues --   -0.87167  -0.85135  -0.84648  -0.77846  -0.76564
 Alpha  occ. eigenvalues --   -0.71406  -0.70158  -0.67194  -0.65290  -0.61833
 Alpha  occ. eigenvalues --   -0.60311  -0.59918  -0.58354  -0.55921  -0.54774
 Alpha  occ. eigenvalues --   -0.53735  -0.53100  -0.51355  -0.50792  -0.50150
 Alpha  occ. eigenvalues --   -0.49283  -0.48477  -0.46985  -0.46590  -0.45649
 Alpha  occ. eigenvalues --   -0.44561  -0.43809  -0.43383  -0.42389  -0.42042
 Alpha  occ. eigenvalues --   -0.40840  -0.39457  -0.37106  -0.36269  -0.33233
 Alpha  occ. eigenvalues --   -0.32577
 Alpha virt. eigenvalues --    0.04604   0.05442   0.06721   0.07180   0.07699
 Alpha virt. eigenvalues --    0.07866   0.08511   0.09538   0.09782   0.10468
 Alpha virt. eigenvalues --    0.10740   0.10968   0.11833   0.12165   0.12893

 Mulliken atomic charges:
              1
     1  C   -0.409197
     2  C   -0.185336
     3  C   -0.199181
     4  C    0.078763
     5  C    0.050139
     6  C   -0.174344
     7  C    0.060230
     8  C    0.185051
     9  C   -0.067827
    10  O   -0.310914
    11  C   -0.044674
    12  O   -0.568963
    13  C   -0.580127
    14  O   -0.474665
    15  C   -0.488165
    16  H    0.177557
    17  H    0.184814
    18  H    0.184528
    19  H    0.181602
    20  H    0.182486
    21  H    0.161083
    22  H    0.214015
    23  H    0.183194
    24  H    0.178066
    25  H    0.408848
    26  H    0.174311
    27  H    0.180479
    28  H    0.184523
    29  H    0.179699
    30  H    0.180242
    31  H    0.173765
 Sum of Mulliken atomic charges =   0.00000

 Dipole moment (field-independent basis, Debye):
    X=              1.3794    Y=             -0.1605    Z=             -0.7114  Tot=              1.5603
 Quadrupole moment (field-independent basis, Debye-Ang):
   XX=            -72.7239   YY=           -100.2951   ZZ=            -84.8090
   XY=            -10.8637   XZ=             -1.7538   YZ=              0.3659

 Normal termination of Gaussian 09 at Wed May 18 00:40:10 2022.
