 Gaussian 09, Revision C.01,
 Gaussian 09:  EM64L-G09RevC.01 23-Sep-2011

 -----------------------------------------------------------------
 # mPW1PW91/6-31g** scrf=(pcm,solvent=chloroform,smd,dovacuum) nmr
 -----------------------------------------------------------------

 99/9=1/99;
 -------
 comment
 -------
 Charge =  0 Multiplicity = 1

                         Standard orientation:
 ---------------------------------------------------------------------
 Center     Atomic      Atomic             Coordinates (Angstroms)
 Number     Number       Type             X           Y           Z
 ---------------------------------------------------------------------
      1          6           0       -2.323537    0.889411   -0.043750
      2          1           0       -3.083694    1.356057    0.594388
      3          6           0       -1.503640   -0.075319    0.831535
      4          1           0       -1.018799    0.496309    1.629882
      5          6           0       -0.429554   -0.797708    0.021174
      6          8           0       -0.704881   -1.785329   -0.662486
      7          8           0       -1.491871    1.961645   -0.494201
      8          1           0       -1.129813    1.721924   -1.366545
      9          6           0       -2.390017   -1.110185    1.531238
     10          1           0       -1.788120   -1.743382    2.192868
     11          1           0       -2.893900   -1.774077    0.821560
     12          1           0       -3.154994   -0.618198    2.140844
     13          6           0        0.989152   -0.318334    0.044523
     14          6           0        3.686094    0.460768    0.025212
     15          6           0        1.977309   -1.171269   -0.471056
     16          6           0        1.368281    0.933558    0.542733
     17          6           0        2.712697    1.319073    0.532891
     18          6           0        3.319141   -0.784385   -0.478577
     19          1           0        1.706403   -2.147802   -0.869399
     20          1           0        0.641933    1.642138    0.929798
     21          1           0        2.998672    2.295084    0.918510
     22          1           0        4.074853   -1.455671   -0.878949
     23          1           0        4.730096    0.764409    0.018510
     24          6           0       -3.042737    0.267582   -1.237499
     25          1           0       -3.615104    1.036434   -1.768922
     26          1           0       -3.735888   -0.520717   -0.932820
     27          1           0       -2.336759   -0.142183   -1.966770
 ---------------------------------------------------------------------

 SCF Done:  E(RmPW1PW91) =  -577.946579848     A.U. after   12 cycles

      1  C    Isotropic =   125.7995   Anisotropy =    52.0593

      2  H    Isotropic =    27.6172   Anisotropy =     5.0201

      3  C    Isotropic =   148.3667   Anisotropy =    21.7584

      4  H    Isotropic =    27.4626   Anisotropy =     7.2219

      5  C    Isotropic =    -7.4591   Anisotropy =   172.1156

      6  O    Isotropic =  -249.9136   Anisotropy =   969.0556

      7  O    Isotropic =   268.3972   Anisotropy =    40.9402

      8  H    Isotropic =    31.0783   Anisotropy =    11.8510

      9  C    Isotropic =   179.5018   Anisotropy =    23.3305

     10  H    Isotropic =    30.7387   Anisotropy =     9.9848

     11  H    Isotropic =    30.2026   Anisotropy =     7.6506

     12  H    Isotropic =    30.8353   Anisotropy =     9.9880

     13  C    Isotropic =    61.9461   Anisotropy =   161.0122

     14  C    Isotropic =    66.2629   Anisotropy =   181.7408

     15  C    Isotropic =    69.3883   Anisotropy =   182.9356

     16  C    Isotropic =    67.3703   Anisotropy =   181.0330

     17  C    Isotropic =    70.1958   Anisotropy =   172.8829

     18  C    Isotropic =    70.3481   Anisotropy =   172.9682

     19  H    Isotropic =    23.1052   Anisotropy =     7.3924

     20  H    Isotropic =    22.7990   Anisotropy =     9.5269

     21  H    Isotropic =    23.7421   Anisotropy =     5.4543

     22  H    Isotropic =    23.7383   Anisotropy =     4.8191

     23  H    Isotropic =    23.7110   Anisotropy =     4.5043

     24  C    Isotropic =   177.3423   Anisotropy =    27.5140

     25  H    Isotropic =    30.4898   Anisotropy =    10.0959

     26  H    Isotropic =    30.1538   Anisotropy =     8.9682

     27  H    Isotropic =    30.9649   Anisotropy =     6.1587

 The electronic state is 1-A.
 Alpha  occ. eigenvalues --  -19.23053 -19.22718 -10.33447 -10.29693 -10.26135
 Alpha  occ. eigenvalues --  -10.25804 -10.25746 -10.25647 -10.25393 -10.25367
 Alpha  occ. eigenvalues --  -10.25035 -10.23144 -10.22894  -1.06121  -1.03959
 Alpha  occ. eigenvalues --   -0.88434  -0.82091  -0.78275  -0.76989  -0.74233
 Alpha  occ. eigenvalues --   -0.67898  -0.64925  -0.62683  -0.60659  -0.55457
 Alpha  occ. eigenvalues --   -0.52235  -0.50260  -0.48776  -0.47008  -0.46686
 Alpha  occ. eigenvalues --   -0.45399  -0.45117  -0.43396  -0.43129  -0.40291
 Alpha  occ. eigenvalues --   -0.39325  -0.38582  -0.37969  -0.37287  -0.36384
 Alpha  occ. eigenvalues --   -0.36004  -0.35277  -0.34865  -0.32681  -0.27972
 Alpha  occ. eigenvalues --   -0.26797  -0.26531  -0.25599
 Alpha virt. eigenvalues --   -0.05126  -0.00142   0.04591   0.10574   0.11767
 Alpha virt. eigenvalues --    0.12062   0.15015   0.15735   0.17051   0.17107
 Alpha virt. eigenvalues --    0.17270   0.18043   0.18824   0.19872   0.20338

 Mulliken atomic charges:
              1
     1  C    0.137008
     2  H    0.146838
     3  C   -0.194324
     4  H    0.157277
     5  C    0.425370
     6  O   -0.515832
     7  O   -0.592524
     8  H    0.344954
     9  C   -0.410099
    10  H    0.146783
    11  H    0.152333
    12  H    0.142010
    13  C   -0.016071
    14  C   -0.131444
    15  C   -0.137726
    16  C   -0.150619
    17  C   -0.163538
    18  C   -0.156412
    19  H    0.161990
    20  H    0.166177
    21  H    0.158511
    22  H    0.158651
    23  H    0.159513
    24  C   -0.434811
    25  H    0.148382
    26  H    0.150354
    27  H    0.147248
 Sum of Mulliken atomic charges =   0.00000

 Dipole moment (field-independent basis, Debye):
    X=              0.9346    Y=              1.3192    Z=              0.6457  Tot=              1.7409
 Quadrupole moment (field-independent basis, Debye-Ang):
   XX=            -63.8387   YY=            -82.3372   ZZ=            -74.5089
   XY=              0.4072   XZ=             -1.8429   YZ=             -0.9195

 Normal termination of Gaussian 09 at Tue Dec 21 09:06:10 2021.
