 Gaussian 09, Revision C.01,
 Gaussian 09:  EM64L-G09RevC.01 23-Sep-2011

 -----------------------------------------------------------------
 # mPW1PW91/6-31g** scrf=(pcm,solvent=chloroform,smd,dovacuum) nmr
 -----------------------------------------------------------------

 99/9=1/99;
 -------
 comment
 -------
 Charge =  0 Multiplicity = 1

                         Standard orientation:
 ---------------------------------------------------------------------
 Center     Atomic      Atomic             Coordinates (Angstroms)
 Number     Number       Type             X           Y           Z
 ---------------------------------------------------------------------
      1          6           0       -2.304571    0.867018   -0.094411
      2          1           0       -3.179737    1.237693    0.453053
      3          6           0       -1.534503   -0.102616    0.819834
      4          1           0       -1.080537    0.455926    1.645418
      5          6           0       -0.433062   -0.848300    0.064746
      6          8           0       -0.679874   -1.891689   -0.545141
      7          8           0       -1.490653    2.011825   -0.356514
      8          1           0       -1.985238    2.592777   -0.961697
      9          6           0       -2.477621   -1.122965    1.468592
     10          1           0       -1.919484   -1.796508    2.128653
     11          1           0       -2.989404   -1.744440    0.726756
     12          1           0       -3.239651   -0.617827    2.071328
     13          6           0        0.975504   -0.336584    0.062889
     14          6           0        3.659918    0.490916    0.014065
     15          6           0        1.972354   -1.163963   -0.478575
     16          6           0        1.341969    0.912976    0.574642
     17          6           0        2.679175    1.323371    0.549471
     18          6           0        3.307137   -0.753140   -0.501743
     19          1           0        1.713274   -2.139699   -0.886287
     20          1           0        0.609292    1.600962    0.984219
     21          1           0        2.952435    2.299075    0.944246
     22          1           0        4.067554   -1.405178   -0.923956
     23          1           0        4.697695    0.813982   -0.005306
     24          6           0       -2.780834    0.282073   -1.420554
     25          1           0       -3.383626    1.020833   -1.960986
     26          1           0       -3.392223   -0.612755   -1.277921
     27          1           0       -1.938943    0.041361   -2.078016
 ---------------------------------------------------------------------

 SCF Done:  E(RmPW1PW91) =  -577.945313805     A.U. after   12 cycles

      1  C    Isotropic =   125.4627   Anisotropy =    51.1862

      2  H    Isotropic =    27.3905   Anisotropy =     5.1525

      3  C    Isotropic =   151.3215   Anisotropy =    17.6211

      4  H    Isotropic =    27.5742   Anisotropy =     7.1247

      5  C    Isotropic =    -6.6380   Anisotropy =   169.8961

      6  O    Isotropic =  -245.6767   Anisotropy =   965.1568

      7  O    Isotropic =   272.5766   Anisotropy =    72.6008

      8  H    Isotropic =    30.5867   Anisotropy =    18.4873

      9  C    Isotropic =   178.9960   Anisotropy =    23.2449

     10  H    Isotropic =    30.6672   Anisotropy =    10.0652

     11  H    Isotropic =    30.0579   Anisotropy =     7.8275

     12  H    Isotropic =    30.8097   Anisotropy =    10.1681

     13  C    Isotropic =    62.8025   Anisotropy =   160.5922

     14  C    Isotropic =    66.3380   Anisotropy =   181.5858

     15  C    Isotropic =    69.2175   Anisotropy =   184.1255

     16  C    Isotropic =    66.9982   Anisotropy =   181.2399

     17  C    Isotropic =    70.4047   Anisotropy =   172.2962

     18  C    Isotropic =    70.5486   Anisotropy =   172.4911

     19  H    Isotropic =    23.0428   Anisotropy =     7.4187

     20  H    Isotropic =    22.9153   Anisotropy =     9.6104

     21  H    Isotropic =    23.7713   Anisotropy =     5.4845

     22  H    Isotropic =    23.7452   Anisotropy =     4.8159

     23  H    Isotropic =    23.7258   Anisotropy =     4.5128

     24  C    Isotropic =   175.5738   Anisotropy =    26.5669

     25  H    Isotropic =    30.7884   Anisotropy =     9.9150

     26  H    Isotropic =    30.1949   Anisotropy =     8.8056

     27  H    Isotropic =    30.9064   Anisotropy =     5.8861

 The electronic state is 1-A.
 Alpha  occ. eigenvalues --  -19.22873 -19.22566 -10.33409 -10.29700 -10.25973
 Alpha  occ. eigenvalues --  -10.25626 -10.25608 -10.25475 -10.25413 -10.25237
 Alpha  occ. eigenvalues --  -10.25210 -10.23168 -10.22715  -1.05903  -1.03909
 Alpha  occ. eigenvalues --   -0.88262  -0.82222  -0.78099  -0.76809  -0.74134
 Alpha  occ. eigenvalues --   -0.67886  -0.64661  -0.62430  -0.60225  -0.55102
 Alpha  occ. eigenvalues --   -0.52051  -0.51432  -0.48932  -0.47406  -0.46536
 Alpha  occ. eigenvalues --   -0.45118  -0.44187  -0.43123  -0.42924  -0.40355
 Alpha  occ. eigenvalues --   -0.39421  -0.38447  -0.38033  -0.36583  -0.36281
 Alpha  occ. eigenvalues --   -0.35801  -0.35567  -0.34896  -0.32424  -0.27881
 Alpha  occ. eigenvalues --   -0.26639  -0.26350  -0.25523
 Alpha virt. eigenvalues --   -0.04995   0.00060   0.04861   0.09828   0.11759
 Alpha virt. eigenvalues --    0.12393   0.14775   0.15991   0.16835   0.17418
 Alpha virt. eigenvalues --    0.17658   0.18406   0.18777   0.19768   0.20487

 Mulliken atomic charges:
              1
     1  C    0.146737
     2  H    0.130211
     3  C   -0.210641
     4  H    0.162434
     5  C    0.443842
     6  O   -0.518157
     7  O   -0.594408
     8  H    0.345269
     9  C   -0.405486
    10  H    0.148054
    11  H    0.152797
    12  H    0.141226
    13  C   -0.016418
    14  C   -0.131545
    15  C   -0.138026
    16  C   -0.144187
    17  C   -0.164613
    18  C   -0.156486
    19  H    0.161353
    20  H    0.164635
    21  H    0.157274
    22  H    0.157750
    23  H    0.158627
    24  C   -0.427126
    25  H    0.138977
    26  H    0.147741
    27  H    0.150167
 Sum of Mulliken atomic charges =   0.00000

 Dipole moment (field-independent basis, Debye):
    X=             -0.5473    Y=              2.8521    Z=              0.7205  Tot=              2.9922
 Quadrupole moment (field-independent basis, Debye-Ang):
   XX=            -60.2517   YY=            -76.6132   ZZ=            -75.6151
   XY=             -4.9809   XZ=             -0.0710   YZ=             -2.1263

 Normal termination of Gaussian 09 at Tue Dec 21 07:59:28 2021.
