 Gaussian 09, Revision C.01,
 Gaussian 09:  EM64L-G09RevC.01 23-Sep-2011

 -----------------------------------------------------------------
 # mPW1PW91/6-31g** scrf=(pcm,solvent=chloroform,smd,dovacuum) nmr
 -----------------------------------------------------------------

 99/9=1/99;
 -------
 comment
 -------
 Charge =  0 Multiplicity = 1

                         Standard orientation:
 ---------------------------------------------------------------------
 Center     Atomic      Atomic             Coordinates (Angstroms)
 Number     Number       Type             X           Y           Z
 ---------------------------------------------------------------------
      1          6           0       -2.735912    0.224272   -0.053208
      2          1           0       -2.955158    0.875279    0.801958
      3          6           0       -1.369085   -0.476738    0.113424
      4          1           0       -1.181973   -1.048421   -0.802448
      5          6           0       -0.262638    0.573281    0.247116
      6          8           0       -0.525147    1.746510    0.520122
      7          8           0       -2.705902    1.044128   -1.226129
      8          1           0       -2.145829    1.814203   -0.997652
      9          6           0       -1.346817   -1.394258    1.336180
     10          1           0       -1.647038   -0.851015    2.239239
     11          1           0       -0.349286   -1.803247    1.523843
     12          1           0       -2.023416   -2.244372    1.206865
     13          6           0        1.170960    0.189127    0.040438
     14          6           0        3.889650   -0.412660   -0.307272
     15          6           0        2.159807    1.121566    0.388836
     16          6           0        1.560057   -1.046436   -0.491481
     17          6           0        2.915793   -1.344306   -0.662144
     18          6           0        3.512638    0.821039    0.217232
     19          1           0        1.881455    2.091395    0.798018
     20          1           0        0.835624   -1.797863   -0.788227
     21          1           0        3.212632   -2.305139   -1.076573
     22          1           0        4.269501    1.551881    0.491478
     23          1           0        4.942817   -0.646774   -0.442972
     24          6           0       -3.893816   -0.751214   -0.233915
     25          1           0       -4.815038   -0.208388   -0.473708
     26          1           0       -4.074507   -1.342276    0.667991
     27          1           0       -3.705212   -1.432393   -1.070989
 ---------------------------------------------------------------------

 SCF Done:  E(RmPW1PW91) =  -577.949798296     A.U. after   12 cycles

      1  C    Isotropic =   127.0735   Anisotropy =    54.9066

      2  H    Isotropic =    27.1944   Anisotropy =     3.9352

      3  C    Isotropic =   143.7206   Anisotropy =    32.3004

      4  H    Isotropic =    28.2811   Anisotropy =     5.5080

      5  C    Isotropic =    -8.5174   Anisotropy =   170.6076

      6  O    Isotropic =  -218.9941   Anisotropy =   906.4206

      7  O    Isotropic =   284.9860   Anisotropy =    38.8691

      8  H    Isotropic =    28.9013   Anisotropy =    17.5082

      9  C    Isotropic =   180.3401   Anisotropy =    20.5878

     10  H    Isotropic =    30.8673   Anisotropy =     8.8907

     11  H    Isotropic =    30.4218   Anisotropy =     7.7681

     12  H    Isotropic =    30.2746   Anisotropy =     8.7742

     13  C    Isotropic =    65.2563   Anisotropy =   157.6463

     14  C    Isotropic =    65.6079   Anisotropy =   182.5850

     15  C    Isotropic =    68.9381   Anisotropy =   184.7206

     16  C    Isotropic =    69.4730   Anisotropy =   176.3672

     17  C    Isotropic =    70.0658   Anisotropy =   173.2917

     18  C    Isotropic =    69.3981   Anisotropy =   174.7827

     19  H    Isotropic =    23.0211   Anisotropy =     7.3631

     20  H    Isotropic =    23.2144   Anisotropy =     9.2662

     21  H    Isotropic =    23.7437   Anisotropy =     5.2862

     22  H    Isotropic =    23.6726   Anisotropy =     4.8544

     23  H    Isotropic =    23.6631   Anisotropy =     4.5393

     24  C    Isotropic =   176.6304   Anisotropy =    27.3377

     25  H    Isotropic =    30.3280   Anisotropy =    10.1114

     26  H    Isotropic =    30.3660   Anisotropy =     8.2334

     27  H    Isotropic =    30.6545   Anisotropy =     8.0020

 The electronic state is 1-A.
 Alpha  occ. eigenvalues --  -19.23454 -19.21933 -10.34139 -10.28759 -10.26553
 Alpha  occ. eigenvalues --  -10.26308 -10.25995 -10.25925 -10.25716 -10.25609
 Alpha  occ. eigenvalues --  -10.25343 -10.23753 -10.22560  -1.06985  -1.02730
 Alpha  occ. eigenvalues --   -0.88773  -0.82399  -0.78453  -0.77306  -0.74242
 Alpha  occ. eigenvalues --   -0.67803  -0.64815  -0.62717  -0.59601  -0.55919
 Alpha  occ. eigenvalues --   -0.53245  -0.51724  -0.48902  -0.47284  -0.46041
 Alpha  occ. eigenvalues --   -0.45522  -0.44286  -0.43420  -0.42650  -0.40661
 Alpha  occ. eigenvalues --   -0.39490  -0.38858  -0.37976  -0.37743  -0.36799
 Alpha  occ. eigenvalues --   -0.36019  -0.35526  -0.35015  -0.32660  -0.27289
 Alpha  occ. eigenvalues --   -0.27111  -0.26772  -0.26107
 Alpha virt. eigenvalues --   -0.05426  -0.00440   0.04334   0.10705   0.11730
 Alpha virt. eigenvalues --    0.12881   0.14438   0.15699   0.16925   0.17251
 Alpha virt. eigenvalues --    0.17663   0.18567   0.18681   0.19060   0.19994

 Mulliken atomic charges:
              1
     1  C    0.136044
     2  H    0.129742
     3  C   -0.203459
     4  H    0.165556
     5  C    0.423310
     6  O   -0.520657
     7  O   -0.603817
     8  H    0.342191
     9  C   -0.413248
    10  H    0.153252
    11  H    0.147484
    12  H    0.158184
    13  C   -0.006487
    14  C   -0.129797
    15  C   -0.135372
    16  C   -0.153505
    17  C   -0.162182
    18  C   -0.155206
    19  H    0.164825
    20  H    0.167076
    21  H    0.160699
    22  H    0.160945
    23  H    0.161684
    24  C   -0.416867
    25  H    0.145667
    26  H    0.144441
    27  H    0.139498
 Sum of Mulliken atomic charges =   0.00000

 Dipole moment (field-independent basis, Debye):
    X=              2.7070    Y=             -3.1087    Z=              0.9446  Tot=              4.2289
 Quadrupole moment (field-independent basis, Debye-Ang):
   XX=            -69.2681   YY=            -73.9252   ZZ=            -80.4271
   XY=              3.4977   XZ=             -5.7585   YZ=              2.1276

 Normal termination of Gaussian 09 at Tue Dec 21 09:21:03 2021.
