 Gaussian 09, Revision C.01,
 Gaussian 09:  EM64L-G09RevC.01 23-Sep-2011

 -----------------------------------------------------------------
 # mPW1PW91/6-31g** scrf=(pcm,solvent=chloroform,smd,dovacuum) nmr
 -----------------------------------------------------------------

 99/9=1/99;
 -------
 comment
 -------
 Charge =  0 Multiplicity = 1

                         Standard orientation:
 ---------------------------------------------------------------------
 Center     Atomic      Atomic             Coordinates (Angstroms)
 Number     Number       Type             X           Y           Z
 ---------------------------------------------------------------------
      1          6           0       -2.683110    0.063002   -0.498278
      2          1           0       -2.551964    0.637530   -1.423534
      3          6           0       -1.319138   -0.473838   -0.006616
      4          1           0       -1.061178   -1.300583   -0.679179
      5          6           0       -0.234012    0.595422   -0.140476
      6          8           0       -0.513825    1.786173   -0.279242
      7          8           0       -3.527327   -1.051285   -0.819231
      8          1           0       -3.224913   -1.409650   -1.671275
      9          6           0       -1.374095   -1.013677    1.423589
     10          1           0       -1.499056   -0.205907    2.152852
     11          1           0       -0.450764   -1.537282    1.689758
     12          1           0       -2.198491   -1.723651    1.545794
     13          6           0        1.213263    0.206778   -0.101954
     14          6           0        3.954888   -0.391075   -0.030967
     15          6           0        2.165738    1.229290    0.026493
     16          6           0        1.651925   -1.119237   -0.203072
     17          6           0        3.018567   -1.414490   -0.165201
     18          6           0        3.529497    0.931408    0.063667
     19          1           0        1.849528    2.268736    0.099949
     20          1           0        0.959666   -1.947087   -0.315607
     21          1           0        3.353644   -2.446402   -0.242560
     22          1           0        4.256890    1.733140    0.165295
     23          1           0        5.016656   -0.623934   -0.002549
     24          6           0       -3.445681    0.926530    0.501820
     25          1           0       -4.362110    1.309669    0.038441
     26          1           0       -2.855596    1.780218    0.844786
     27          1           0       -3.770134    0.345429    1.371585
 ---------------------------------------------------------------------

 SCF Done:  E(RmPW1PW91) =  -577.945597268     A.U. after   12 cycles

      1  C    Isotropic =   127.6629   Anisotropy =    52.4774

      2  H    Isotropic =    27.1624   Anisotropy =     4.4905

      3  C    Isotropic =   145.7014   Anisotropy =    38.1862

      4  H    Isotropic =    28.1747   Anisotropy =     6.8037

      5  C    Isotropic =    -6.9924   Anisotropy =   170.5548

      6  O    Isotropic =  -235.0108   Anisotropy =   928.8888

      7  O    Isotropic =   288.2970   Anisotropy =   105.5594

      8  H    Isotropic =    30.5155   Anisotropy =    18.9633

      9  C    Isotropic =   182.5688   Anisotropy =    15.5193

     10  H    Isotropic =    30.6087   Anisotropy =     7.8264

     11  H    Isotropic =    30.3563   Anisotropy =     8.7365

     12  H    Isotropic =    30.0226   Anisotropy =     8.8499

     13  C    Isotropic =    64.9897   Anisotropy =   158.4069

     14  C    Isotropic =    66.1858   Anisotropy =   181.9473

     15  C    Isotropic =    69.2481   Anisotropy =   183.9928

     16  C    Isotropic =    69.7091   Anisotropy =   174.6892

     17  C    Isotropic =    70.1937   Anisotropy =   173.0789

     18  C    Isotropic =    69.4816   Anisotropy =   174.3758

     19  H    Isotropic =    23.1199   Anisotropy =     7.3199

     20  H    Isotropic =    23.3100   Anisotropy =     9.1681

     21  H    Isotropic =    23.7695   Anisotropy =     5.2344

     22  H    Isotropic =    23.7147   Anisotropy =     4.8527

     23  H    Isotropic =    23.6968   Anisotropy =     4.5168

     24  C    Isotropic =   178.0253   Anisotropy =    25.3841

     25  H    Isotropic =    30.3554   Anisotropy =    10.2267

     26  H    Isotropic =    30.2249   Anisotropy =     9.0402

     27  H    Isotropic =    30.5584   Anisotropy =     6.6186

 The electronic state is 1-A.
 Alpha  occ. eigenvalues --  -19.22921 -19.22491 -10.33706 -10.28901 -10.26368
 Alpha  occ. eigenvalues --  -10.26180 -10.25875 -10.25773 -10.25627 -10.25508
 Alpha  occ. eigenvalues --  -10.25252 -10.23459 -10.22171  -1.06357  -1.03343
 Alpha  occ. eigenvalues --   -0.88633  -0.82080  -0.78303  -0.77181  -0.74036
 Alpha  occ. eigenvalues --   -0.67813  -0.64825  -0.62627  -0.59512  -0.55665
 Alpha  occ. eigenvalues --   -0.52574  -0.51489  -0.48321  -0.48252  -0.46581
 Alpha  occ. eigenvalues --   -0.45216  -0.44104  -0.43177  -0.41902  -0.40820
 Alpha  occ. eigenvalues --   -0.39367  -0.38795  -0.38098  -0.36926  -0.36762
 Alpha  occ. eigenvalues --   -0.35656  -0.35338  -0.34709  -0.32328  -0.27950
 Alpha  occ. eigenvalues --   -0.26967  -0.26670  -0.25465
 Alpha virt. eigenvalues --   -0.05048  -0.00346   0.04605   0.09627   0.11214
 Alpha virt. eigenvalues --    0.13079   0.14592   0.16697   0.17223   0.17384
 Alpha virt. eigenvalues --    0.17475   0.18436   0.19013   0.19771   0.20031

 Mulliken atomic charges:
              1
     1  C    0.134619
     2  H    0.131576
     3  C   -0.211932
     4  H    0.158111
     5  C    0.428926
     6  O   -0.508847
     7  O   -0.599312
     8  H    0.342607
     9  C   -0.409020
    10  H    0.152565
    11  H    0.144802
    12  H    0.156915
    13  C   -0.007828
    14  C   -0.131346
    15  C   -0.136507
    16  C   -0.155319
    17  C   -0.162908
    18  C   -0.155393
    19  H    0.163702
    20  H    0.164929
    21  H    0.159469
    22  H    0.159996
    23  H    0.160512
    24  C   -0.410742
    25  H    0.139500
    26  H    0.150496
    27  H    0.140431
 Sum of Mulliken atomic charges =   0.00000

 Dipole moment (field-independent basis, Debye):
    X=              2.9910    Y=             -2.8012    Z=             -0.6330  Tot=              4.1465
 Quadrupole moment (field-independent basis, Debye-Ang):
   XX=            -74.7223   YY=            -75.5645   ZZ=            -74.7871
   XY=             -0.7638   XZ=              2.4716   YZ=              3.7675

 Normal termination of Gaussian 09 at Tue Dec 21 09:29:04 2021.
