 Gaussian 09, Revision C.01,
 Gaussian 09:  EM64L-G09RevC.01 23-Sep-2011

 -----------------------------------------------------------------
 # mPW1PW91/6-31g** scrf=(pcm,solvent=chloroform,smd,dovacuum) nmr
 -----------------------------------------------------------------

 99/9=1/99;
 -------
 comment
 -------
 Charge =  0 Multiplicity = 1

                         Standard orientation:
 ---------------------------------------------------------------------
 Center     Atomic      Atomic             Coordinates (Angstroms)
 Number     Number       Type             X           Y           Z
 ---------------------------------------------------------------------
      1          6           0       -2.645559    0.051930   -0.540680
      2          1           0       -2.457718    0.628163   -1.454801
      3          6           0       -1.306859   -0.480287    0.016125
      4          1           0       -1.016834   -1.305504   -0.644819
      5          6           0       -0.223779    0.594496   -0.062354
      6          8           0       -0.508096    1.792108   -0.104870
      7          8           0       -3.439970   -1.078188   -0.927524
      8          1           0       -4.261130   -0.731915   -1.319076
      9          6           0       -1.421039   -1.020622    1.441791
     10          1           0       -1.597128   -0.215830    2.163733
     11          1           0       -0.500080   -1.524663    1.751389
     12          1           0       -2.236507   -1.746399    1.524164
     13          6           0        1.224637    0.204744   -0.072645
     14          6           0        3.968636   -0.392663   -0.090481
     15          6           0        2.181871    1.229060   -0.004191
     16          6           0        1.660773   -1.123490   -0.154819
     17          6           0        3.028175   -1.418372   -0.162348
     18          6           0        3.546409    0.931734   -0.012022
     19          1           0        1.869044    2.270265    0.056582
     20          1           0        0.966002   -1.954869   -0.215820
     21          1           0        3.359633   -2.452372   -0.225930
     22          1           0        4.276590    1.735433    0.042299
     23          1           0        5.030676   -0.625531   -0.097246
     24          6           0       -3.470095    0.901003    0.423287
     25          1           0       -4.358245    1.289538   -0.088024
     26          1           0       -2.905410    1.751405    0.813373
     27          1           0       -3.843377    0.305725    1.263347
 ---------------------------------------------------------------------

 SCF Done:  E(RmPW1PW91) =  -577.945225090     A.U. after   12 cycles

      1  C    Isotropic =   127.9395   Anisotropy =    52.5179

      2  H    Isotropic =    27.2785   Anisotropy =     4.4822

      3  C    Isotropic =   150.1881   Anisotropy =    32.4034

      4  H    Isotropic =    27.8544   Anisotropy =     7.4344

      5  C    Isotropic =    -5.9900   Anisotropy =   168.3849

      6  O    Isotropic =  -229.6971   Anisotropy =   927.5549

      7  O    Isotropic =   278.7381   Anisotropy =    71.4707

      8  H    Isotropic =    30.7544   Anisotropy =    18.4124

      9  C    Isotropic =   182.5367   Anisotropy =    16.6309

     10  H    Isotropic =    30.5831   Anisotropy =     7.8613

     11  H    Isotropic =    30.3380   Anisotropy =     8.6006

     12  H    Isotropic =    30.0703   Anisotropy =     9.1963

     13  C    Isotropic =    65.3600   Anisotropy =   157.8431

     14  C    Isotropic =    65.9763   Anisotropy =   182.3640

     15  C    Isotropic =    69.1786   Anisotropy =   185.4452

     16  C    Isotropic =    69.4240   Anisotropy =   175.4331

     17  C    Isotropic =    70.0375   Anisotropy =   173.0545

     18  C    Isotropic =    69.5201   Anisotropy =   174.1525

     19  H    Isotropic =    23.0477   Anisotropy =     7.4052

     20  H    Isotropic =    23.2184   Anisotropy =     9.3390

     21  H    Isotropic =    23.7465   Anisotropy =     5.2751

     22  H    Isotropic =    23.7032   Anisotropy =     4.8743

     23  H    Isotropic =    23.6844   Anisotropy =     4.5320

     24  C    Isotropic =   174.3739   Anisotropy =    31.1435

     25  H    Isotropic =    30.5490   Anisotropy =     9.3990

     26  H    Isotropic =    29.9923   Anisotropy =     9.2994

     27  H    Isotropic =    30.4588   Anisotropy =     6.2342

 The electronic state is 1-A.
 Alpha  occ. eigenvalues --  -19.22931 -19.22349 -10.33819 -10.28926 -10.26395
 Alpha  occ. eigenvalues --  -10.26157 -10.25865 -10.25758 -10.25590 -10.25486
 Alpha  occ. eigenvalues --  -10.25441 -10.23491 -10.22154  -1.06353  -1.03260
 Alpha  occ. eigenvalues --   -0.88608  -0.82226  -0.78293  -0.77143  -0.73748
 Alpha  occ. eigenvalues --   -0.67992  -0.65175  -0.62681  -0.59766  -0.55269
 Alpha  occ. eigenvalues --   -0.53042  -0.50817  -0.48269  -0.47169  -0.46313
 Alpha  occ. eigenvalues --   -0.45053  -0.44097  -0.43517  -0.43035  -0.41605
 Alpha  occ. eigenvalues --   -0.39320  -0.38874  -0.38354  -0.36899  -0.36691
 Alpha  occ. eigenvalues --   -0.35576  -0.35387  -0.34720  -0.32009  -0.27135
 Alpha  occ. eigenvalues --   -0.26851  -0.26669  -0.25997
 Alpha virt. eigenvalues --   -0.05155  -0.00314   0.04720   0.09830   0.11201
 Alpha virt. eigenvalues --    0.13174   0.14966   0.16948   0.17083   0.17357
 Alpha virt. eigenvalues --    0.17956   0.18193   0.18617   0.19154   0.20006

 Mulliken atomic charges:
              1
     1  C    0.148729
     2  H    0.126996
     3  C   -0.209586
     4  H    0.167346
     5  C    0.432547
     6  O   -0.509816
     7  O   -0.605847
     8  H    0.342934
     9  C   -0.408960
    10  H    0.152152
    11  H    0.146194
    12  H    0.159384
    13  C   -0.009511
    14  C   -0.130645
    15  C   -0.136118
    16  C   -0.155391
    17  C   -0.162772
    18  C   -0.155091
    19  H    0.163937
    20  H    0.166512
    21  H    0.159849
    22  H    0.160022
    23  H    0.160722
    24  C   -0.425355
    25  H    0.133516
    26  H    0.147399
    27  H    0.140852
 Sum of Mulliken atomic charges =   0.00000

 Dipole moment (field-independent basis, Debye):
    X=              1.1516    Y=             -1.6425    Z=              0.0199  Tot=              2.0061
 Quadrupole moment (field-independent basis, Debye-Ang):
   XX=            -59.1055   YY=            -78.5814   ZZ=            -77.5809
   XY=             -3.1077   XZ=              2.2127   YZ=             -0.4953

 Normal termination of Gaussian 09 at Tue Dec 21 09:25:52 2021.
