 Gaussian 09, Revision C.01,
 Gaussian 09:  EM64L-G09RevC.01 23-Sep-2011

 ----------------------------------------------------------------
 # wb97xd/6-31+g** scrf=(pcm,solvent=chloroform,smd,dovacuum) nmr
 ----------------------------------------------------------------

 99/9=1/99;
 -------
 comment
 -------
 Charge =  0 Multiplicity = 1

                         Standard orientation:
 ---------------------------------------------------------------------
 Center     Atomic      Atomic             Coordinates (Angstroms)
 Number     Number       Type             X           Y           Z
 ---------------------------------------------------------------------
      1          6           0       -2.407000    1.345147    0.108818
      2          6           0       -3.919211   -0.996669    0.069547
      3          6           0       -3.786109    1.405814   -0.099284
      4          6           0       -1.766626    0.111558    0.306156
      5          6           0       -2.540370   -1.059251    0.278012
      6          6           0       -4.541543    0.235490   -0.117512
      7          6           0       -0.262809    0.072587    0.517704
      8          6           0        0.513515   -0.085249   -0.800152
      9          6           0        1.896343    0.496653   -0.579432
     10          8           0        2.865990   -0.452978   -0.521171
     11          6           0        4.198025    0.015801   -0.267947
     12          8           0        0.075416   -0.966139    1.440256
     13          6           0        0.539682   -1.511187   -1.354563
     14          8           0        2.091529    1.700732   -0.445791
     15          6           0        4.432368    0.139820    1.225865
     16          1           0       -1.833644    2.270638    0.114777
     17          1           0       -4.507032   -1.910856    0.049840
     18          1           0       -4.270719    2.367295   -0.249352
     19          1           0       -2.070491   -2.031920    0.413258
     20          1           0       -5.614989    0.283446   -0.281044
     21          1           0        0.022921    1.006695    1.018482
     22          1           0        0.064951    0.549016   -1.577761
     23          1           0        4.393145    0.961943   -0.785571
     24          1           0        4.883812   -0.727457   -0.687582
     25          1           0       -0.569141   -0.914251    2.168374
     26          1           0       -0.465652   -1.848555   -1.623273
     27          1           0        1.153337   -1.560623   -2.261265
     28          1           0        0.957627   -2.225911   -0.637834
     29          1           0        3.757185    0.878187    1.669795
     30          1           0        5.463318    0.440090    1.433188
     31          1           0        4.234315   -0.813741    1.726343
 ---------------------------------------------------------------------

 SCF Done:  E(RwB97XD) =  -692.441799278     A.U. after   16 cycles

      1  C    Isotropic =    71.2960   Anisotropy =   164.1527

      2  C    Isotropic =    70.3304   Anisotropy =   176.0392

      3  C    Isotropic =    69.9676   Anisotropy =   174.9394

      4  C    Isotropic =    50.0107   Anisotropy =   184.7371

      5  C    Isotropic =    74.1212   Anisotropy =   179.7922

      6  C    Isotropic =    71.9227   Anisotropy =   175.7951

      7  C    Isotropic =   119.6490   Anisotropy =    34.2710

      8  C    Isotropic =   147.4922   Anisotropy =    24.0317

      9  C    Isotropic =    17.5303   Anisotropy =   101.0351

     10  O    Isotropic =   127.1892   Anisotropy =   184.8779

     11  C    Isotropic =   137.2931   Anisotropy =    66.3678

     12  O    Isotropic =   291.2279   Anisotropy =    79.3681

     13  C    Isotropic =   188.7802   Anisotropy =     9.1724

     14  O    Isotropic =   -35.0556   Anisotropy =   534.6658

     15  C    Isotropic =   181.6435   Anisotropy =    25.2358

     16  H    Isotropic =    23.6501   Anisotropy =     8.4261

     17  H    Isotropic =    23.7576   Anisotropy =     5.1895

     18  H    Isotropic =    23.7825   Anisotropy =     4.8652

     19  H    Isotropic =    23.2478   Anisotropy =    10.1205

     20  H    Isotropic =    23.7908   Anisotropy =     4.2364

     21  H    Isotropic =    26.2892   Anisotropy =     5.6830

     22  H    Isotropic =    28.9188   Anisotropy =     5.2367

     23  H    Isotropic =    26.8503   Anisotropy =     6.6420

     24  H    Isotropic =    27.6520   Anisotropy =     8.2198

     25  H    Isotropic =    30.0655   Anisotropy =    16.3772

     26  H    Isotropic =    30.6115   Anisotropy =     9.4874

     27  H    Isotropic =    30.7027   Anisotropy =    10.1647

     28  H    Isotropic =    29.7742   Anisotropy =     6.7417

     29  H    Isotropic =    30.2192   Anisotropy =     5.8750

     30  H    Isotropic =    30.5538   Anisotropy =    11.6502

     31  H    Isotropic =    30.3402   Anisotropy =     7.8553

 The electronic state is 1-A.
 Alpha  occ. eigenvalues --  -19.32712 -19.28301 -19.27179 -10.43814 -10.36246
 Alpha  occ. eigenvalues --  -10.34936 -10.32084 -10.31605 -10.30789 -10.30773
 Alpha  occ. eigenvalues --  -10.30728 -10.30715 -10.30571 -10.28538 -10.28530
 Alpha  occ. eigenvalues --   -1.20851  -1.13200  -1.12142  -0.96274  -0.91291
 Alpha  occ. eigenvalues --   -0.86769  -0.84923  -0.84777  -0.78000  -0.75787
 Alpha  occ. eigenvalues --   -0.71486  -0.70085  -0.67900  -0.64512  -0.62318
 Alpha  occ. eigenvalues --   -0.59841  -0.58730  -0.57578  -0.56064  -0.54961
 Alpha  occ. eigenvalues --   -0.53378  -0.53033  -0.51689  -0.50691  -0.50187
 Alpha  occ. eigenvalues --   -0.48560  -0.47720  -0.46364  -0.46171  -0.45715
 Alpha  occ. eigenvalues --   -0.45060  -0.44468  -0.42801  -0.42418  -0.41601
 Alpha  occ. eigenvalues --   -0.40614  -0.38715  -0.36936  -0.36109  -0.33368
 Alpha  occ. eigenvalues --   -0.32436
 Alpha virt. eigenvalues --    0.04651   0.05245   0.06502   0.07340   0.07902
 Alpha virt. eigenvalues --    0.08098   0.08637   0.09363   0.09921   0.10180
 Alpha virt. eigenvalues --    0.10345   0.11047   0.11723   0.11847   0.12822

 Mulliken atomic charges:
              1
     1  C   -0.023402
     2  C   -0.320207
     3  C   -0.295215
     4  C   -0.005896
     5  C   -0.136715
     6  C   -0.148978
     7  C    0.014819
     8  C    0.367540
     9  C   -0.070464
    10  O   -0.246838
    11  C   -0.053655
    12  O   -0.571804
    13  C   -0.658192
    14  O   -0.477585
    15  C   -0.490159
    16  H    0.180654
    17  H    0.184939
    18  H    0.185115
    19  H    0.185631
    20  H    0.182552
    21  H    0.168033
    22  H    0.214029
    23  H    0.178212
    24  H    0.173528
    25  H    0.402001
    26  H    0.171972
    27  H    0.172941
    28  H    0.186282
    29  H    0.179102
    30  H    0.176733
    31  H    0.175029
 Sum of Mulliken atomic charges =   0.00000

 Dipole moment (field-independent basis, Debye):
    X=             -1.0879    Y=             -1.0864    Z=              0.0532  Tot=              1.5384
 Quadrupole moment (field-independent basis, Debye-Ang):
   XX=            -72.8749   YY=            -92.8247   ZZ=            -88.4474
   XY=             -2.9875   XZ=             -0.6788   YZ=              1.0568

 Normal termination of Gaussian 09 at Tue May 17 17:41:44 2022.
