 Gaussian 09, Revision C.01,
 Gaussian 09:  EM64L-G09RevC.01 23-Sep-2011

 ----------------------------------------------------------------
 # wb97xd/6-31+g** scrf=(pcm,solvent=chloroform,smd,dovacuum) nmr
 ----------------------------------------------------------------

 99/9=1/99;
 -------
 comment
 -------
 Charge =  0 Multiplicity = 1

                         Standard orientation:
 ---------------------------------------------------------------------
 Center     Atomic      Atomic             Coordinates (Angstroms)
 Number     Number       Type             X           Y           Z
 ---------------------------------------------------------------------
      1          6           0        1.750008   -0.467030    1.255540
      2          6           0        2.762093   -1.264808   -1.218189
      3          6           0        2.500326   -1.639401    1.150956
      4          6           0        1.499309    0.322216    0.123452
      5          6           0        2.011367   -0.092918   -1.116121
      6          6           0        3.006800   -2.037017   -0.084711
      7          6           0        0.668759    1.587134    0.244333
      8          6           0       -0.732185    1.445365   -0.366398
      9          6           0       -1.509373    0.410686    0.414307
     10          8           0       -2.088505   -0.485954   -0.431759
     11          6           0       -2.832400   -1.518853    0.224614
     12          8           0        1.371103    2.656372   -0.401853
     13          6           0       -1.515669    2.757189   -0.346498
     14          8           0       -1.617133    0.397115    1.634103
     15          6           0       -3.382469   -2.452346   -0.835863
     16          1           0        1.353109   -0.179165    2.227908
     17          1           0        3.154435   -1.575973   -2.182981
     18          1           0        2.686370   -2.244579    2.034685
     19          1           0        1.826383    0.499247   -2.010825
     20          1           0        3.590076   -2.950660   -0.164614
     21          1           0        0.594135    1.872877    1.301138
     22          1           0       -0.647146    1.124888   -1.412863
     23          1           0       -3.658073   -1.074949    0.791847
     24          1           0       -2.175247   -2.075551    0.902196
     25          1           0        2.315493    2.538479   -0.195509
     26          1           0       -1.037551    3.514299   -0.976026
     27          1           0       -2.534649    2.606435   -0.720121
     28          1           0       -1.595030    3.158156    0.670129
     29          1           0       -4.025293   -1.906332   -1.534246
     30          1           0       -3.961252   -3.261298   -0.381490
     31          1           0       -2.568871   -2.887434   -1.425700
 ---------------------------------------------------------------------

 SCF Done:  E(RwB97XD) =  -692.446008802     A.U. after   16 cycles

      1  C    Isotropic =    70.0458   Anisotropy =   164.7838

      2  C    Isotropic =    69.4743   Anisotropy =   177.1294

      3  C    Isotropic =    70.1910   Anisotropy =   173.7910

      4  C    Isotropic =    51.0481   Anisotropy =   186.3260

      5  C    Isotropic =    72.7187   Anisotropy =   180.8473

      6  C    Isotropic =    71.4023   Anisotropy =   177.6497

      7  C    Isotropic =   119.4733   Anisotropy =    29.0782

      8  C    Isotropic =   146.3182   Anisotropy =    25.9520

      9  C    Isotropic =    18.9422   Anisotropy =   103.5836

     10  O    Isotropic =   125.4340   Anisotropy =   174.9721

     11  C    Isotropic =   137.1624   Anisotropy =    58.7136

     12  O    Isotropic =   276.0277   Anisotropy =    60.4846

     13  C    Isotropic =   180.2529   Anisotropy =    27.4230

     14  O    Isotropic =   -41.1318   Anisotropy =   564.2176

     15  C    Isotropic =   182.7965   Anisotropy =    23.4623

     16  H    Isotropic =    23.9079   Anisotropy =     7.6293

     17  H    Isotropic =    23.6721   Anisotropy =     4.8438

     18  H    Isotropic =    23.9618   Anisotropy =     4.7213

     19  H    Isotropic =    23.3456   Anisotropy =     9.2391

     20  H    Isotropic =    23.7990   Anisotropy =     4.0445

     21  H    Isotropic =    26.6249   Anisotropy =     5.9145

     22  H    Isotropic =    28.5173   Anisotropy =     4.0607

     23  H    Isotropic =    27.7413   Anisotropy =     7.0717

     24  H    Isotropic =    28.1512   Anisotropy =     5.1348

     25  H    Isotropic =    29.9945   Anisotropy =    14.6856

     26  H    Isotropic =    29.8041   Anisotropy =     9.1138

     27  H    Isotropic =    30.4629   Anisotropy =     9.5371

     28  H    Isotropic =    30.3443   Anisotropy =     8.6356

     29  H    Isotropic =    30.5102   Anisotropy =     8.8646

     30  H    Isotropic =    30.6419   Anisotropy =    11.1308

     31  H    Isotropic =    30.7653   Anisotropy =     7.4280

 The electronic state is 1-A.
 Alpha  occ. eigenvalues --  -19.32996 -19.28129 -19.27739 -10.44087 -10.35907
 Alpha  occ. eigenvalues --  -10.34996 -10.31848 -10.31519 -10.30837 -10.30779
 Alpha  occ. eigenvalues --  -10.30759 -10.30693 -10.30627 -10.29021 -10.28801
 Alpha  occ. eigenvalues --   -1.21186  -1.12978  -1.12608  -0.96297  -0.91497
 Alpha  occ. eigenvalues --   -0.86895  -0.85458  -0.84828  -0.77747  -0.75685
 Alpha  occ. eigenvalues --   -0.70525  -0.69946  -0.68200  -0.65120  -0.62264
 Alpha  occ. eigenvalues --   -0.60952  -0.58632  -0.57399  -0.56104  -0.55153
 Alpha  occ. eigenvalues --   -0.53465  -0.52936  -0.52267  -0.50630  -0.49804
 Alpha  occ. eigenvalues --   -0.49049  -0.47708  -0.47401  -0.45799  -0.45381
 Alpha  occ. eigenvalues --   -0.44704  -0.43751  -0.43548  -0.43109  -0.42335
 Alpha  occ. eigenvalues --   -0.40029  -0.39004  -0.37488  -0.36091  -0.33393
 Alpha  occ. eigenvalues --   -0.32559
 Alpha virt. eigenvalues --    0.04652   0.05309   0.06582   0.06946   0.07923
 Alpha virt. eigenvalues --    0.08202   0.08611   0.09347   0.09910   0.10360
 Alpha virt. eigenvalues --    0.10702   0.10926   0.11092   0.11995   0.12931

 Mulliken atomic charges:
              1
     1  C   -0.023554
     2  C   -0.211866
     3  C   -0.297169
     4  C   -0.379257
     5  C   -0.011561
     6  C   -0.160503
     7  C    0.209355
     8  C    0.228017
     9  C   -0.142453
    10  O   -0.234310
    11  C    0.139406
    12  O   -0.552349
    13  C   -0.574095
    14  O   -0.442364
    15  C   -0.655909
    16  H    0.176113
    17  H    0.185580
    18  H    0.184786
    19  H    0.183398
    20  H    0.183146
    21  H    0.162219
    22  H    0.199061
    23  H    0.176666
    24  H    0.177749
    25  H    0.398635
    26  H    0.188732
    27  H    0.176558
    28  H    0.181601
    29  H    0.176293
    30  H    0.180937
    31  H    0.177139
 Sum of Mulliken atomic charges =   0.00000

 Dipole moment (field-independent basis, Debye):
    X=              0.4051    Y=             -2.3225    Z=             -1.1868  Tot=              2.6394
 Quadrupole moment (field-independent basis, Debye-Ang):
   XX=            -80.2229   YY=            -87.5018   ZZ=            -91.1509
   XY=              0.7091   XZ=              2.9806   YZ=             -0.5041

 Normal termination of Gaussian 09 at Tue May 17 14:53:15 2022.
