 Gaussian 09, Revision C.01,
 Gaussian 09:  EM64L-G09RevC.01 23-Sep-2011

 ----------------------------------------------------------------
 # wb97xd/6-31+g** scrf=(pcm,solvent=chloroform,smd,dovacuum) nmr
 ----------------------------------------------------------------

 99/9=1/99;
 -------
 comment
 -------
 Charge =  0 Multiplicity = 1

                         Standard orientation:
 ---------------------------------------------------------------------
 Center     Atomic      Atomic             Coordinates (Angstroms)
 Number     Number       Type             X           Y           Z
 ---------------------------------------------------------------------
      1          6           0       -2.287771   -0.540101    0.868394
      2          6           0       -2.182738    1.626105   -0.877215
      3          6           0       -3.135378    0.553411    1.058313
      4          6           0       -1.369247   -0.565674   -0.194589
      5          6           0       -1.334969    0.532451   -1.067941
      6          6           0       -3.080711    1.637484    0.186665
      7          6           0       -0.440365   -1.755721   -0.359093
      8          6           0        0.922277   -1.647638    0.357942
      9          6           0        1.701388   -0.460745   -0.179105
     10          8           0        2.187265    0.341861    0.801278
     11          6           0        2.923828    1.496012    0.370562
     12          8           0       -0.268371   -2.070306   -1.745466
     13          6           0        0.778920   -1.656854    1.881201
     14          8           0        1.872401   -0.279433   -1.381691
     15          6           0        1.976065    2.644001    0.077678
     16          1           0       -2.352554   -1.377881    1.559736
     17          1           0       -2.143736    2.466792   -1.565156
     18          1           0       -3.841028    0.556575    1.884995
     19          1           0       -0.651166    0.548237   -1.913860
     20          1           0       -3.742174    2.487364    0.331487
     21          1           0       -0.961453   -2.633105    0.045399
     22          1           0        1.525066   -2.525775    0.087345
     23          1           0        3.555385    1.264715   -0.494777
     24          1           0        3.592559    1.772055    1.192387
     25          1           0        0.427313   -1.481188   -2.099370
     26          1           0        0.195760   -2.522046    2.213438
     27          1           0        1.762468   -1.719841    2.360404
     28          1           0        0.293009   -0.749911    2.255308
     29          1           0        1.311541    2.401342   -0.757165
     30          1           0        2.532436    3.551241   -0.174097
     31          1           0        1.338424    2.848062    0.944077
 ---------------------------------------------------------------------

 SCF Done:  E(RwB97XD) =  -692.447622675     A.U. after   15 cycles

      1  C    Isotropic =    70.0567   Anisotropy =   166.1425

      2  C    Isotropic =    69.3663   Anisotropy =   175.7971

      3  C    Isotropic =    71.1042   Anisotropy =   172.4084

      4  C    Isotropic =    54.5260   Anisotropy =   180.7365

      5  C    Isotropic =    72.1100   Anisotropy =   182.4503

      6  C    Isotropic =    72.1004   Anisotropy =   176.6525

      7  C    Isotropic =   119.7284   Anisotropy =    43.8846

      8  C    Isotropic =   149.8685   Anisotropy =    14.0852

      9  C    Isotropic =    19.0930   Anisotropy =   105.1175

     10  O    Isotropic =   121.2366   Anisotropy =   183.6941

     11  C    Isotropic =   137.3558   Anisotropy =    66.2322

     12  O    Isotropic =   278.4103   Anisotropy =    38.6256

     13  C    Isotropic =   181.7667   Anisotropy =    15.8157

     14  O    Isotropic =   -31.9054   Anisotropy =   528.8947

     15  C    Isotropic =   181.3066   Anisotropy =    24.1153

     16  H    Isotropic =    23.8827   Anisotropy =     8.1406

     17  H    Isotropic =    23.7839   Anisotropy =     5.2391

     18  H    Isotropic =    23.8631   Anisotropy =     4.6261

     19  H    Isotropic =    23.6619   Anisotropy =     8.8843

     20  H    Isotropic =    23.8348   Anisotropy =     4.1290

     21  H    Isotropic =    26.8551   Anisotropy =     5.5914

     22  H    Isotropic =    28.4792   Anisotropy =     6.4611

     23  H    Isotropic =    26.9805   Anisotropy =     7.1123

     24  H    Isotropic =    27.9149   Anisotropy =     9.1686

     25  H    Isotropic =    26.2081   Anisotropy =    17.2293

     26  H    Isotropic =    30.7274   Anisotropy =     9.7650

     27  H    Isotropic =    30.3319   Anisotropy =    10.2302

     28  H    Isotropic =    30.7492   Anisotropy =     5.0778

     29  H    Isotropic =    30.5115   Anisotropy =     6.7897

     30  H    Isotropic =    30.7782   Anisotropy =    11.7833

     31  H    Isotropic =    31.0663   Anisotropy =     6.4061

 The electronic state is 1-A.
 Alpha  occ. eigenvalues --  -19.33505 -19.28367 -19.27303 -10.44877 -10.36113
 Alpha  occ. eigenvalues --  -10.35342 -10.32370 -10.31462 -10.30680 -10.30596
 Alpha  occ. eigenvalues --  -10.30581 -10.30539 -10.30425 -10.29032 -10.28784
 Alpha  occ. eigenvalues --   -1.21760  -1.13667  -1.11804  -0.96139  -0.91503
 Alpha  occ. eigenvalues --   -0.86897  -0.85063  -0.84644  -0.77421  -0.76530
 Alpha  occ. eigenvalues --   -0.72500  -0.69962  -0.67964  -0.65285  -0.62078
 Alpha  occ. eigenvalues --   -0.59899  -0.58968  -0.58282  -0.55520  -0.55174
 Alpha  occ. eigenvalues --   -0.53860  -0.52647  -0.51283  -0.50670  -0.50220
 Alpha  occ. eigenvalues --   -0.49078  -0.48241  -0.47010  -0.46758  -0.46038
 Alpha  occ. eigenvalues --   -0.45277  -0.44476  -0.42486  -0.42117  -0.41923
 Alpha  occ. eigenvalues --   -0.41673  -0.39318  -0.36887  -0.36169  -0.33147
 Alpha  occ. eigenvalues --   -0.32461
 Alpha virt. eigenvalues --    0.04960   0.05104   0.06241   0.06897   0.07797
 Alpha virt. eigenvalues --    0.08211   0.08605   0.09438   0.09762   0.10375
 Alpha virt. eigenvalues --    0.10602   0.10870   0.12137   0.12471   0.12874

 Mulliken atomic charges:
              1
     1  C   -0.235540
     2  C   -0.283525
     3  C   -0.237847
     4  C   -0.002245
     5  C    0.258019
     6  C   -0.210087
     7  C   -0.273658
     8  C    0.124780
     9  C    0.064170
    10  O   -0.223397
    11  C   -0.001391
    12  O   -0.479618
    13  C   -0.607863
    14  O   -0.474064
    15  C   -0.506150
    16  H    0.175388
    17  H    0.180817
    18  H    0.183819
    19  H    0.165408
    20  H    0.182211
    21  H    0.164076
    22  H    0.222284
    23  H    0.181625
    24  H    0.176862
    25  H    0.385503
    26  H    0.170902
    27  H    0.176849
    28  H    0.186672
    29  H    0.181057
    30  H    0.178832
    31  H    0.176111
 Sum of Mulliken atomic charges =   0.00000

 Dipole moment (field-independent basis, Debye):
    X=              1.5300    Y=              2.1204    Z=              3.7691  Tot=              4.5873
 Quadrupole moment (field-independent basis, Debye-Ang):
   XX=            -83.6137   YY=            -84.2699   ZZ=            -94.2836
   XY=             -0.3678   XZ=             -2.1570   YZ=             -9.0959

 Normal termination of Gaussian 09 at Tue May 17 17:44:20 2022.
