 Gaussian 09, Revision C.01,
 Gaussian 09:  EM64L-G09RevC.01 23-Sep-2011

 ----------------------------------------------------------------
 # wb97xd/6-31+g** scrf=(pcm,solvent=chloroform,smd,dovacuum) nmr
 ----------------------------------------------------------------

 99/9=1/99;
 -------
 comment
 -------
 Charge =  0 Multiplicity = 1

                         Standard orientation:
 ---------------------------------------------------------------------
 Center     Atomic      Atomic             Coordinates (Angstroms)
 Number     Number       Type             X           Y           Z
 ---------------------------------------------------------------------
      1          6           0       -1.310913   -1.086498   -0.847853
      2          6           0       -3.399345   -0.275291    0.811547
      3          6           0       -2.301868   -1.996218   -0.473801
      4          6           0       -1.350692    0.241478   -0.394593
      5          6           0       -2.408971    0.634931    0.438993
      6          6           0       -3.344641   -1.590668    0.356310
      7          6           0       -0.253369    1.213492   -0.781806
      8          6           0        0.696449    1.537377    0.383016
      9          6           0        1.402030    0.298725    0.890901
     10          8           0        1.952473   -0.416167   -0.130290
     11          6           0        2.642314   -1.600441    0.288474
     12          8           0       -0.886224    2.414058   -1.241377
     13          6           0        1.747196    2.583614    0.008968
     14          8           0        1.513456    0.018052    2.077569
     15          6           0        3.133771   -2.321527   -0.951281
     16          1           0       -0.504905   -1.424334   -1.495485
     17          1           0       -4.214047    0.044728    1.455639
     18          1           0       -2.260552   -3.021986   -0.830407
     19          1           0       -2.468471    1.661761    0.794816
     20          1           0       -4.116236   -2.298475    0.646928
     21          1           0        0.299307    0.806363   -1.638064
     22          1           0        0.113765    1.944838    1.220089
     23          1           0        1.959943   -2.250783    0.847331
     24          1           0        3.494018   -1.325683    0.920495
     25          1           0       -0.279542    2.839365   -1.869799
     26          1           0        1.282902    3.550346   -0.210037
     27          1           0        2.457565    2.733603    0.829648
     28          1           0        2.322110    2.273764   -0.870683
     29          1           0        2.293620   -2.581867   -1.603675
     30          1           0        3.670361   -3.236090   -0.683997
     31          1           0        3.800767   -1.676944   -1.533268
 ---------------------------------------------------------------------

 SCF Done:  E(RwB97XD) =  -692.445822388     A.U. after   16 cycles

      1  C    Isotropic =    70.3805   Anisotropy =   160.5944

      2  C    Isotropic =    69.9092   Anisotropy =   177.5617

      3  C    Isotropic =    70.5247   Anisotropy =   174.3089

      4  C    Isotropic =    53.4470   Anisotropy =   183.7932

      5  C    Isotropic =    72.6071   Anisotropy =   180.4507

      6  C    Isotropic =    71.7278   Anisotropy =   176.4204

      7  C    Isotropic =   119.7851   Anisotropy =    29.6418

      8  C    Isotropic =   143.0472   Anisotropy =    28.4693

      9  C    Isotropic =    19.3914   Anisotropy =   105.9566

     10  O    Isotropic =   135.1896   Anisotropy =   154.9958

     11  C    Isotropic =   136.5659   Anisotropy =    58.9203

     12  O    Isotropic =   295.6179   Anisotropy =    45.2706

     13  C    Isotropic =   180.0934   Anisotropy =    28.1573

     14  O    Isotropic =   -55.2306   Anisotropy =   531.1488

     15  C    Isotropic =   182.3141   Anisotropy =    22.6755

     16  H    Isotropic =    23.8088   Anisotropy =     7.1944

     17  H    Isotropic =    23.6977   Anisotropy =     4.9754

     18  H    Isotropic =    23.8917   Anisotropy =     5.3342

     19  H    Isotropic =    23.4755   Anisotropy =     9.6357

     20  H    Isotropic =    23.8234   Anisotropy =     4.2006

     21  H    Isotropic =    26.6842   Anisotropy =     7.4107

     22  H    Isotropic =    28.5781   Anisotropy =     4.9815

     23  H    Isotropic =    27.8393   Anisotropy =     5.7842

     24  H    Isotropic =    27.6917   Anisotropy =     7.6673

     25  H    Isotropic =    29.1352   Anisotropy =    18.6180

     26  H    Isotropic =    29.9449   Anisotropy =     9.0055

     27  H    Isotropic =    30.3724   Anisotropy =     9.6535

     28  H    Isotropic =    30.4254   Anisotropy =     7.7868

     29  H    Isotropic =    30.2140   Anisotropy =     7.3983

     30  H    Isotropic =    30.4111   Anisotropy =    11.1879

     31  H    Isotropic =    30.2784   Anisotropy =     8.3301

 The electronic state is 1-A.
 Alpha  occ. eigenvalues --  -19.32956 -19.28316 -19.27572 -10.43986 -10.36042
 Alpha  occ. eigenvalues --  -10.35111 -10.31718 -10.31452 -10.30651 -10.30562
 Alpha  occ. eigenvalues --  -10.30530 -10.30504 -10.30415 -10.29421 -10.28924
 Alpha  occ. eigenvalues --   -1.21161  -1.13072  -1.12481  -0.96160  -0.91541
 Alpha  occ. eigenvalues --   -0.86765  -0.85533  -0.84622  -0.77988  -0.75181
 Alpha  occ. eigenvalues --   -0.71096  -0.70034  -0.67650  -0.65846  -0.61469
 Alpha  occ. eigenvalues --   -0.60552  -0.59325  -0.57907  -0.56603  -0.54753
 Alpha  occ. eigenvalues --   -0.53636  -0.52492  -0.51516  -0.50564  -0.50143
 Alpha  occ. eigenvalues --   -0.49285  -0.47658  -0.47158  -0.46132  -0.44957
 Alpha  occ. eigenvalues --   -0.44625  -0.44007  -0.43522  -0.43319  -0.42327
 Alpha  occ. eigenvalues --   -0.40564  -0.38938  -0.37639  -0.35405  -0.33165
 Alpha  occ. eigenvalues --   -0.32668
 Alpha virt. eigenvalues --    0.04918   0.05522   0.06467   0.07055   0.07720
 Alpha virt. eigenvalues --    0.08243   0.08465   0.09543   0.09823   0.10025
 Alpha virt. eigenvalues --    0.10715   0.11421   0.11666   0.12096   0.12889

 Mulliken atomic charges:
              1
     1  C   -0.176985
     2  C   -0.164270
     3  C   -0.308213
     4  C   -0.193133
     5  C    0.109772
     6  C   -0.136957
     7  C    0.058745
     8  C    0.158076
     9  C   -0.018917
    10  O   -0.265412
    11  C    0.099146
    12  O   -0.571454
    13  C   -0.572585
    14  O   -0.462777
    15  C   -0.656537
    16  H    0.170201
    17  H    0.184811
    18  H    0.182860
    19  H    0.180845
    20  H    0.182066
    21  H    0.161830
    22  H    0.200559
    23  H    0.175679
    24  H    0.176859
    25  H    0.401436
    26  H    0.185335
    27  H    0.185596
    28  H    0.182323
    29  H    0.174471
    30  H    0.181479
    31  H    0.175156
 Sum of Mulliken atomic charges =   0.00000

 Dipole moment (field-independent basis, Debye):
    X=              2.3246    Y=             -0.7154    Z=             -2.9898  Tot=              3.8542
 Quadrupole moment (field-independent basis, Debye-Ang):
   XX=            -84.2429   YY=            -78.6468   ZZ=            -96.3506
   XY=              3.2440   XZ=            -10.1961   YZ=              0.4102

 Normal termination of Gaussian 09 at Tue May 17 16:46:19 2022.
