 Gaussian 09, Revision C.01,
 Gaussian 09:  EM64L-G09RevC.01 23-Sep-2011

 ----------------------------------------------------------------
 # wb97xd/6-31+g** scrf=(pcm,solvent=chloroform,smd,dovacuum) nmr
 ----------------------------------------------------------------

 99/9=1/99;
 -------
 comment
 -------
 Charge =  0 Multiplicity = 1

                         Standard orientation:
 ---------------------------------------------------------------------
 Center     Atomic      Atomic             Coordinates (Angstroms)
 Number     Number       Type             X           Y           Z
 ---------------------------------------------------------------------
      1          6           0       -2.689783    0.578791    0.132577
      2          6           0       -2.051081   -2.115611   -0.188269
      3          6           0       -3.627802   -0.304176   -0.405833
      4          6           0       -1.418651    0.125808    0.518220
      5          6           0       -1.112497   -1.234422    0.350892
      6          6           0       -3.308203   -1.650368   -0.566045
      7          6           0       -0.409590    1.096695    1.099997
      8          6           0        0.619056    1.689466    0.123010
      9          6           0        1.344469    0.624801   -0.677391
     10          8           0        2.282538    0.001695    0.089751
     11          6           0        3.020644   -1.020068   -0.589290
     12          8           0        0.257761    0.505264    2.219743
     13          6           0       -0.014847    2.709078   -0.827582
     14          8           0        1.142283    0.375441   -1.859279
     15          6           0        3.979579   -1.648218    0.402860
     16          1           0       -2.960413    1.626719    0.244534
     17          1           0       -1.798239   -3.164718   -0.318421
     18          1           0       -4.607570    0.059659   -0.704719
     19          1           0       -0.134524   -1.618044    0.636492
     20          1           0       -4.037024   -2.336194   -0.989887
     21          1           0       -0.969923    1.932079    1.540166
     22          1           0        1.388415    2.226283    0.695310
     23          1           0        3.582581   -0.578364   -1.419675
     24          1           0        2.333523   -1.783174   -0.971914
     25          1           0       -0.393739   -0.052810    2.679940
     26          1           0       -0.501050    3.514762   -0.267795
     27          1           0        0.748080    3.161817   -1.470961
     28          1           0       -0.760961    2.249223   -1.484015
     29          1           0        4.660846   -0.894291    0.810964
     30          1           0        4.569247   -2.438061   -0.070711
     31          1           0        3.432347   -2.074742    1.250099
 ---------------------------------------------------------------------

 SCF Done:  E(RwB97XD) =  -692.443410311     A.U. after   16 cycles

      1  C    Isotropic =    69.2163   Anisotropy =   163.3356

      2  C    Isotropic =    69.2272   Anisotropy =   177.1639

      3  C    Isotropic =    70.9012   Anisotropy =   174.9323

      4  C    Isotropic =    54.7230   Anisotropy =   181.1020

      5  C    Isotropic =    72.7590   Anisotropy =   179.8276

      6  C    Isotropic =    70.5551   Anisotropy =   176.1053

      7  C    Isotropic =   118.6651   Anisotropy =    37.7413

      8  C    Isotropic =   151.3308   Anisotropy =    18.7608

      9  C    Isotropic =    19.8107   Anisotropy =    98.2328

     10  O    Isotropic =   121.2266   Anisotropy =   173.4486

     11  C    Isotropic =   136.5145   Anisotropy =    57.4915

     12  O    Isotropic =   274.5277   Anisotropy =    83.6655

     13  C    Isotropic =   181.0475   Anisotropy =    20.8764

     14  O    Isotropic =   -53.9476   Anisotropy =   578.1710

     15  C    Isotropic =   182.1489   Anisotropy =    23.1541

     16  H    Isotropic =    23.8631   Anisotropy =     8.0323

     17  H    Isotropic =    23.7345   Anisotropy =     5.6183

     18  H    Isotropic =    23.7950   Anisotropy =     4.6447

     19  H    Isotropic =    23.6061   Anisotropy =     8.7008

     20  H    Isotropic =    23.8228   Anisotropy =     4.0051

     21  H    Isotropic =    26.5901   Anisotropy =     6.1392

     22  H    Isotropic =    28.2935   Anisotropy =     5.4647

     23  H    Isotropic =    27.5228   Anisotropy =     7.3282

     24  H    Isotropic =    27.4015   Anisotropy =     5.6138

     25  H    Isotropic =    29.9285   Anisotropy =    14.7033

     26  H    Isotropic =    30.7289   Anisotropy =    10.2030

     27  H    Isotropic =    30.5733   Anisotropy =    10.8893

     28  H    Isotropic =    30.5596   Anisotropy =     5.9340

     29  H    Isotropic =    30.1972   Anisotropy =     8.6647

     30  H    Isotropic =    30.3347   Anisotropy =    11.0336

     31  H    Isotropic =    30.1099   Anisotropy =     7.1983

 The electronic state is 1-A.
 Alpha  occ. eigenvalues --  -19.32336 -19.27930 -19.27337 -10.43611 -10.36280
 Alpha  occ. eigenvalues --  -10.34768 -10.31980 -10.31777 -10.30938 -10.30897
 Alpha  occ. eigenvalues --  -10.30791 -10.30777 -10.30657 -10.28816 -10.28639
 Alpha  occ. eigenvalues --   -1.20699  -1.12830  -1.12126  -0.96372  -0.91283
 Alpha  occ. eigenvalues --   -0.86789  -0.85290  -0.84901  -0.77549  -0.75824
 Alpha  occ. eigenvalues --   -0.70633  -0.70172  -0.68044  -0.64850  -0.62260
 Alpha  occ. eigenvalues --   -0.59444  -0.58352  -0.58331  -0.56276  -0.55180
 Alpha  occ. eigenvalues --   -0.54613  -0.53115  -0.50920  -0.50353  -0.49637
 Alpha  occ. eigenvalues --   -0.48954  -0.47717  -0.46574  -0.45513  -0.44841
 Alpha  occ. eigenvalues --   -0.44626  -0.44106  -0.43511  -0.42889  -0.42397
 Alpha  occ. eigenvalues --   -0.40300  -0.38653  -0.37128  -0.35846  -0.33423
 Alpha  occ. eigenvalues --   -0.32600
 Alpha virt. eigenvalues --    0.04686   0.04982   0.06709   0.07198   0.07933
 Alpha virt. eigenvalues --    0.08155   0.08478   0.09547   0.09808   0.10218
 Alpha virt. eigenvalues --    0.10732   0.11188   0.11748   0.12036   0.12771

 Mulliken atomic charges:
              1
     1  C   -0.077317
     2  C   -0.255930
     3  C   -0.250805
     4  C   -0.076193
     5  C   -0.107055
     6  C   -0.140489
     7  C    0.050182
     8  C    0.260881
     9  C   -0.228819
    10  O   -0.215799
    11  C    0.157481
    12  O   -0.520781
    13  C   -0.577037
    14  O   -0.433266
    15  C   -0.642240
    16  H    0.178665
    17  H    0.184543
    18  H    0.185832
    19  H    0.182048
    20  H    0.183900
    21  H    0.149829
    22  H    0.197345
    23  H    0.174533
    24  H    0.173014
    25  H    0.384781
    26  H    0.169544
    27  H    0.176448
    28  H    0.186837
    29  H    0.175487
    30  H    0.179027
    31  H    0.175354
 Sum of Mulliken atomic charges =   0.00000

 Dipole moment (field-independent basis, Debye):
    X=             -1.1151    Y=             -0.4530    Z=              1.4084  Tot=              1.8526
 Quadrupole moment (field-independent basis, Debye-Ang):
   XX=            -77.5038   YY=            -77.7729   ZZ=            -99.8447
   XY=             -4.0059   XZ=             -1.5143   YZ=              0.7531

 Normal termination of Gaussian 09 at Tue May 17 16:16:59 2022.
