 Gaussian 09, Revision C.01,
 Gaussian 09:  EM64L-G09RevC.01 23-Sep-2011

 ----------------------------------------------------------------
 # wb97xd/6-31+g** scrf=(pcm,solvent=chloroform,smd,dovacuum) nmr
 ----------------------------------------------------------------

 99/9=1/99;
 -------
 comment
 -------
 Charge =  0 Multiplicity = 1

                         Standard orientation:
 ---------------------------------------------------------------------
 Center     Atomic      Atomic             Coordinates (Angstroms)
 Number     Number       Type             X           Y           Z
 ---------------------------------------------------------------------
      1          6           0        2.433185    1.234771   -0.448810
      2          6           0        3.956899   -0.993595    0.242993
      3          6           0        3.802829    1.369363   -0.212396
      4          6           0        1.806027   -0.018075   -0.343831
      5          6           0        2.587362   -1.129220    0.007297
      6          6           0        4.563954    0.255261    0.133499
      7          6           0        0.310555   -0.131408   -0.581818
      8          6           0       -0.495928    0.257940    0.670411
      9          6           0       -1.880023    0.702259    0.252154
     10          8           0       -2.514420   -0.267472   -0.467603
     11          6           0       -3.853870    0.040395   -0.886325
     12          8           0       -0.004002   -1.456330   -1.019835
     13          6           0       -0.607219   -0.837388    1.728982
     14          8           0       -2.360256    1.790126    0.540809
     15          6           0       -4.839371   -0.329402    0.206037
     16          1           0        1.856977    2.118020   -0.716574
     17          1           0        4.548521   -1.865258    0.509951
     18          1           0        4.275895    2.344074   -0.298836
     19          1           0        2.129928   -2.112929    0.094698
     20          1           0        5.630122    0.359254    0.315950
     21          1           0        0.059777    0.531117   -1.420887
     22          1           0       -0.034330    1.138614    1.137732
     23          1           0       -4.053584   -0.558457   -1.780901
     24          1           0       -3.949155    1.093152   -1.175661
     25          1           0       -0.961658   -1.474499   -1.200920
     26          1           0        0.378642   -1.119515    2.110486
     27          1           0       -1.206610   -0.489605    2.577965
     28          1           0       -1.094870   -1.737686    1.340412
     29          1           0       -4.729989   -1.383520    0.481431
     30          1           0       -5.867430   -0.155330   -0.123797
     31          1           0       -4.659209    0.256567    1.112825
 ---------------------------------------------------------------------

 SCF Done:  E(RwB97XD) =  -692.445009661     A.U. after   16 cycles

      1  C    Isotropic =    72.2425   Anisotropy =   167.8150

      2  C    Isotropic =    70.2383   Anisotropy =   173.6988

      3  C    Isotropic =    70.1997   Anisotropy =   174.0001

      4  C    Isotropic =    53.0783   Anisotropy =   179.2889

      5  C    Isotropic =    73.5102   Anisotropy =   183.2754

      6  C    Isotropic =    73.1979   Anisotropy =   177.7098

      7  C    Isotropic =   123.8538   Anisotropy =    41.0349

      8  C    Isotropic =   145.6946   Anisotropy =    27.8278

      9  C    Isotropic =    18.4533   Anisotropy =   101.5639

     10  O    Isotropic =   143.9421   Anisotropy =   149.3511

     11  C    Isotropic =   137.6031   Anisotropy =    67.0121

     12  O    Isotropic =   303.3813   Anisotropy =    70.1577

     13  C    Isotropic =   186.8688   Anisotropy =    16.0996

     14  O    Isotropic =   -43.8453   Anisotropy =   521.4720

     15  C    Isotropic =   181.6076   Anisotropy =    26.0739

     16  H    Isotropic =    23.8558   Anisotropy =     8.8490

     17  H    Isotropic =    23.7885   Anisotropy =     5.0987

     18  H    Isotropic =    23.8077   Anisotropy =     4.9213

     19  H    Isotropic =    23.3334   Anisotropy =    10.3875

     20  H    Isotropic =    23.6827   Anisotropy =     4.3667

     21  H    Isotropic =    26.4510   Anisotropy =     6.0797

     22  H    Isotropic =    28.9515   Anisotropy =     5.6254

     23  H    Isotropic =    27.6403   Anisotropy =     7.8498

     24  H    Isotropic =    26.7690   Anisotropy =     6.5353

     25  H    Isotropic =    28.3563   Anisotropy =    20.8257

     26  H    Isotropic =    30.5789   Anisotropy =     9.1776

     27  H    Isotropic =    30.7648   Anisotropy =    10.1530

     28  H    Isotropic =    30.0914   Anisotropy =     6.6552

     29  H    Isotropic =    30.3924   Anisotropy =     8.0517

     30  H    Isotropic =    30.5412   Anisotropy =    11.7223

     31  H    Isotropic =    30.3098   Anisotropy =     6.3786

 The electronic state is 1-A.
 Alpha  occ. eigenvalues --  -19.33720 -19.27947 -19.27831 -10.44323 -10.36233
 Alpha  occ. eigenvalues --  -10.35502 -10.31904 -10.31645 -10.30674 -10.30571
 Alpha  occ. eigenvalues --  -10.30498 -10.30408 -10.30352 -10.29201 -10.28921
 Alpha  occ. eigenvalues --   -1.21665  -1.13143  -1.12594  -0.96130  -0.91502
 Alpha  occ. eigenvalues --   -0.87063  -0.85217  -0.84571  -0.78198  -0.76235
 Alpha  occ. eigenvalues --   -0.71913  -0.69941  -0.67134  -0.65483  -0.61056
 Alpha  occ. eigenvalues --   -0.60037  -0.59771  -0.58321  -0.56014  -0.54753
 Alpha  occ. eigenvalues --   -0.54463  -0.52794  -0.52013  -0.50394  -0.50101
 Alpha  occ. eigenvalues --   -0.49627  -0.48655  -0.46656  -0.46525  -0.45678
 Alpha  occ. eigenvalues --   -0.44668  -0.44315  -0.43181  -0.42401  -0.42104
 Alpha  occ. eigenvalues --   -0.40906  -0.39443  -0.36924  -0.36262  -0.33130
 Alpha  occ. eigenvalues --   -0.32288
 Alpha virt. eigenvalues --    0.05035   0.05570   0.06456   0.06801   0.07962
 Alpha virt. eigenvalues --    0.08137   0.08868   0.09223   0.09974   0.10339
 Alpha virt. eigenvalues --    0.10745   0.10842   0.11082   0.12007   0.12876

 Mulliken atomic charges:
              1
     1  C   -0.142923
     2  C   -0.277470
     3  C   -0.259581
     4  C   -0.136744
     5  C    0.031417
     6  C   -0.173317
     7  C    0.146467
     8  C    0.060512
     9  C    0.229580
    10  O   -0.328896
    11  C   -0.045605
    12  O   -0.597661
    13  C   -0.642028
    14  O   -0.487063
    15  C   -0.504788
    16  H    0.177461
    17  H    0.184018
    18  H    0.184092
    19  H    0.185146
    20  H    0.181324
    21  H    0.158332
    22  H    0.199020
    23  H    0.176217
    24  H    0.181827
    25  H    0.418358
    26  H    0.183088
    27  H    0.179151
    28  H    0.185018
    29  H    0.175045
    30  H    0.179390
    31  H    0.180613
 Sum of Mulliken atomic charges =   0.00000

 Dipole moment (field-independent basis, Debye):
    X=             -1.7090    Y=             -0.6590    Z=             -0.2967  Tot=              1.8555
 Quadrupole moment (field-independent basis, Debye-Ang):
   XX=            -74.0928   YY=            -93.9624   ZZ=            -91.1948
   XY=              9.0360   XZ=              8.5008   YZ=             -5.7559

 Normal termination of Gaussian 09 at Tue May 17 15:46:41 2022.
