 Gaussian 09, Revision C.01,
 Gaussian 09:  EM64L-G09RevC.01 23-Sep-2011

 ----------------------------------------------------------------
 # wb97xd/6-31+g** scrf=(pcm,solvent=chloroform,smd,dovacuum) nmr
 ----------------------------------------------------------------

 99/9=1/99;
 -------
 comment
 -------
 Charge =  0 Multiplicity = 1

                         Standard orientation:
 ---------------------------------------------------------------------
 Center     Atomic      Atomic             Coordinates (Angstroms)
 Number     Number       Type             X           Y           Z
 ---------------------------------------------------------------------
      1          6           0       -2.340886   -0.021506    1.070137
      2          6           0       -2.215768    1.632220   -1.166085
      3          6           0       -3.054515    1.178654    1.046598
      4          6           0       -1.548449   -0.411900   -0.022598
      5          6           0       -1.501682    0.431890   -1.143323
      6          6           0       -2.989862    2.006305   -0.070906
      7          6           0       -0.762388   -1.709540    0.043027
      8          6           0        0.679265   -1.594026    0.582157
      9          6           0        1.498839   -0.683390   -0.313273
     10          8           0        2.172238    0.273490    0.373810
     11          6           0        2.937313    1.167854   -0.443210
     12          8           0       -0.786766   -2.374907   -1.224643
     13          6           0        0.716035   -1.204334    2.061256
     14          8           0        1.545480   -0.828933   -1.532072
     15          6           0        3.591037    2.192528    0.462940
     16          1           0       -2.411237   -0.654259    1.952589
     17          1           0       -2.170881    2.271553   -2.044039
     18          1           0       -3.664106    1.464986    1.899695
     19          1           0       -0.914941    0.161310   -2.018456
     20          1           0       -3.547822    2.938544   -0.091816
     21          1           0       -1.312267   -2.389999    0.706019
     22          1           0        1.159455   -2.578863    0.497539
     23          1           0        2.277648    1.673148   -1.157617
     24          1           0        3.707066    0.605844   -0.983653
     25          1           0       -0.085613   -1.980820   -1.780749
     26          1           0        0.097413   -1.881756    2.659103
     27          1           0        1.738879   -1.263704    2.450157
     28          1           0        0.364569   -0.180767    2.226921
     29          1           0        2.833577    2.747277    1.026557
     30          1           0        4.189437    2.900860   -0.116724
     31          1           0        4.237577    1.700916    1.197380
 ---------------------------------------------------------------------

 SCF Done:  E(RwB97XD) =  -692.447700437     A.U. after   15 cycles

      1  C    Isotropic =    69.5712   Anisotropy =   164.7829

      2  C    Isotropic =    70.0940   Anisotropy =   177.1647

      3  C    Isotropic =    71.2300   Anisotropy =   173.5282

      4  C    Isotropic =    55.2946   Anisotropy =   181.2296

      5  C    Isotropic =    71.5607   Anisotropy =   179.1989

      6  C    Isotropic =    71.8999   Anisotropy =   175.3398

      7  C    Isotropic =   119.3058   Anisotropy =    41.9983

      8  C    Isotropic =   150.2744   Anisotropy =    14.3133

      9  C    Isotropic =    17.6066   Anisotropy =   106.6987

     10  O    Isotropic =   122.1062   Anisotropy =   142.1398

     11  C    Isotropic =   136.7322   Anisotropy =    59.2596

     12  O    Isotropic =   279.0857   Anisotropy =    40.1054

     13  C    Isotropic =   181.6155   Anisotropy =    16.0136

     14  O    Isotropic =   -38.2963   Anisotropy =   527.8423

     15  C    Isotropic =   182.9319   Anisotropy =    23.1800

     16  H    Isotropic =    23.8703   Anisotropy =     8.2141

     17  H    Isotropic =    23.7398   Anisotropy =     5.2457

     18  H    Isotropic =    23.8180   Anisotropy =     4.6776

     19  H    Isotropic =    23.7307   Anisotropy =     9.2804

     20  H    Isotropic =    23.8719   Anisotropy =     3.9968

     21  H    Isotropic =    26.8637   Anisotropy =     5.4823

     22  H    Isotropic =    28.3744   Anisotropy =     6.3829

     23  H    Isotropic =    27.7832   Anisotropy =     5.3160

     24  H    Isotropic =    27.5930   Anisotropy =     7.2253

     25  H    Isotropic =    26.1733   Anisotropy =    17.4242

     26  H    Isotropic =    30.6973   Anisotropy =     9.7891

     27  H    Isotropic =    30.2859   Anisotropy =    10.0699

     28  H    Isotropic =    30.7271   Anisotropy =     4.9107

     29  H    Isotropic =    30.6459   Anisotropy =     7.2486

     30  H    Isotropic =    30.5494   Anisotropy =    11.1617

     31  H    Isotropic =    30.4578   Anisotropy =     8.9089

 The electronic state is 1-A.
 Alpha  occ. eigenvalues --  -19.33575 -19.28448 -19.27307 -10.44815 -10.36114
 Alpha  occ. eigenvalues --  -10.35335 -10.32363 -10.31467 -10.30682 -10.30604
 Alpha  occ. eigenvalues --  -10.30582 -10.30547 -10.30428 -10.29041 -10.28983
 Alpha  occ. eigenvalues --   -1.21915  -1.13718  -1.11816  -0.96138  -0.91540
 Alpha  occ. eigenvalues --   -0.87126  -0.85177  -0.84643  -0.77422  -0.76014
 Alpha  occ. eigenvalues --   -0.71870  -0.69965  -0.67927  -0.66383  -0.62152
 Alpha  occ. eigenvalues --   -0.59597  -0.59211  -0.57820  -0.57121  -0.54936
 Alpha  occ. eigenvalues --   -0.54280  -0.51490  -0.51104  -0.50753  -0.50009
 Alpha  occ. eigenvalues --   -0.49385  -0.47697  -0.47152  -0.46994  -0.45903
 Alpha  occ. eigenvalues --   -0.45000  -0.44117  -0.43473  -0.42428  -0.41898
 Alpha  occ. eigenvalues --   -0.41633  -0.39451  -0.36883  -0.36179  -0.33158
 Alpha  occ. eigenvalues --   -0.32465
 Alpha virt. eigenvalues --    0.04978   0.05102   0.06269   0.07006   0.08031
 Alpha virt. eigenvalues --    0.08190   0.08515   0.09521   0.09886   0.10216
 Alpha virt. eigenvalues --    0.10737   0.10957   0.11572   0.11994   0.12565

 Mulliken atomic charges:
              1
     1  C   -0.238495
     2  C   -0.275174
     3  C   -0.240681
     4  C    0.013308
     5  C    0.255696
     6  C   -0.203417
     7  C   -0.284603
     8  C    0.167869
     9  C    0.011240
    10  O   -0.242272
    11  C    0.143380
    12  O   -0.481185
    13  C   -0.636657
    14  O   -0.469357
    15  C   -0.611961
    16  H    0.175123
    17  H    0.183298
    18  H    0.184030
    19  H    0.167727
    20  H    0.182160
    21  H    0.163801
    22  H    0.221721
    23  H    0.179618
    24  H    0.178350
    25  H    0.384649
    26  H    0.171575
    27  H    0.177219
    28  H    0.186853
    29  H    0.177732
    30  H    0.182247
    31  H    0.176205
 Sum of Mulliken atomic charges =   0.00000

 Dipole moment (field-independent basis, Debye):
    X=              2.2513    Y=              2.7550    Z=              3.0654  Tot=              4.6963
 Quadrupole moment (field-independent basis, Debye-Ang):
   XX=            -84.2510   YY=            -88.8954   ZZ=            -89.5909
   XY=             -2.7470   XZ=             -3.9779   YZ=            -10.1074

 Normal termination of Gaussian 09 at Tue May 17 17:15:22 2022.
