 Gaussian 09, Revision C.01,
 Gaussian 09:  EM64L-G09RevC.01 23-Sep-2011

 ----------------------------------------------------------------
 # wb97xd/6-31+g** scrf=(pcm,solvent=chloroform,smd,dovacuum) nmr
 ----------------------------------------------------------------

 99/9=1/99;
 -------
 comment
 -------
 Charge =  0 Multiplicity = 1

                         Standard orientation:
 ---------------------------------------------------------------------
 Center     Atomic      Atomic             Coordinates (Angstroms)
 Number     Number       Type             X           Y           Z
 ---------------------------------------------------------------------
      1          6           0        2.790684    0.995435   -0.519065
      2          6           0        3.622989   -1.426812    0.587055
      3          6           0        4.128721    0.808712   -0.167349
      4          6           0        1.852454   -0.028135   -0.320267
      5          6           0        2.284904   -1.242478    0.236739
      6          6           0        4.544019   -0.401202    0.385293
      7          6           0        0.399334    0.183964   -0.700308
      8          6           0       -0.561979    0.197613    0.496691
      9          6           0       -1.930184    0.598056   -0.010892
     10          8           0       -2.859904   -0.339044    0.327549
     11          6           0       -4.186467   -0.039677   -0.121009
     12          8           0        0.022721   -0.878738   -1.586532
     13          6           0       -0.169077    1.182058    1.597690
     14          8           0       -2.170701    1.642128   -0.605160
     15          6           0       -5.097103   -1.175342    0.303128
     16          1           0        2.486408    1.948765   -0.946770
     17          1           0        3.946522   -2.371245    1.017161
     18          1           0        4.847956    1.608771   -0.323898
     19          1           0        1.577011   -2.053986    0.396550
     20          1           0        5.586141   -0.544805    0.658801
     21          1           0        0.306775    1.111331   -1.278976
     22          1           0       -0.633952   -0.809718    0.927299
     23          1           0       -4.196302    0.054215   -1.212733
     24          1           0       -4.527337    0.897120    0.333801
     25          1           0        0.785628   -1.048380   -2.167788
     26          1           0       -0.954711    1.247126    2.359008
     27          1           0        0.751940    0.872418    2.101130
     28          1           0       -0.017759    2.190430    1.196351
     29          1           0       -4.756710   -2.123312   -0.126522
     30          1           0       -6.126100   -0.991145   -0.017970
     31          1           0       -5.082211   -1.295497    1.391452
 ---------------------------------------------------------------------

 SCF Done:  E(RwB97XD) =  -692.445920582     A.U. after   16 cycles

      1  C    Isotropic =    69.7599   Anisotropy =   161.7884

      2  C    Isotropic =    69.1193   Anisotropy =   177.5010

      3  C    Isotropic =    70.0031   Anisotropy =   173.7409

      4  C    Isotropic =    52.4990   Anisotropy =   187.7206

      5  C    Isotropic =    73.0545   Anisotropy =   179.0648

      6  C    Isotropic =    70.9216   Anisotropy =   176.5911

      7  C    Isotropic =   116.5952   Anisotropy =    27.5563

      8  C    Isotropic =   147.5487   Anisotropy =    25.3809

      9  C    Isotropic =    15.9290   Anisotropy =   102.0995

     10  O    Isotropic =   123.9831   Anisotropy =   174.8149

     11  C    Isotropic =   136.6062   Anisotropy =    58.7686

     12  O    Isotropic =   265.7989   Anisotropy =    46.0926

     13  C    Isotropic =   180.6982   Anisotropy =    21.5928

     14  O    Isotropic =   -30.4786   Anisotropy =   550.9311

     15  C    Isotropic =   182.4161   Anisotropy =    23.4211

     16  H    Isotropic =    23.7311   Anisotropy =     7.7442

     17  H    Isotropic =    23.6699   Anisotropy =     5.2104

     18  H    Isotropic =    23.8412   Anisotropy =     4.7097

     19  H    Isotropic =    23.2696   Anisotropy =     9.8351

     20  H    Isotropic =    23.7604   Anisotropy =     4.1750

     21  H    Isotropic =    26.6132   Anisotropy =     4.4795

     22  H    Isotropic =    28.4737   Anisotropy =     4.5053

     23  H    Isotropic =    27.4446   Anisotropy =     6.0938

     24  H    Isotropic =    27.4554   Anisotropy =     6.5292

     25  H    Isotropic =    29.9129   Anisotropy =    14.8343

     26  H    Isotropic =    30.6909   Anisotropy =    10.1537

     27  H    Isotropic =    31.3576   Anisotropy =     6.7458

     28  H    Isotropic =    30.7061   Anisotropy =     7.9441

     29  H    Isotropic =    30.2472   Anisotropy =     8.1552

     30  H    Isotropic =    30.3586   Anisotropy =    10.8733

     31  H    Isotropic =    30.2971   Anisotropy =     8.4062

 The electronic state is 1-A.
 Alpha  occ. eigenvalues --  -19.32799 -19.28150 -19.27487 -10.43778 -10.35969
 Alpha  occ. eigenvalues --  -10.34852 -10.31880 -10.31602 -10.30887 -10.30886
 Alpha  occ. eigenvalues --  -10.30829 -10.30792 -10.30704 -10.29330 -10.28705
 Alpha  occ. eigenvalues --   -1.20944  -1.13028  -1.12344  -0.96355  -0.91482
 Alpha  occ. eigenvalues --   -0.86967  -0.85211  -0.84896  -0.77923  -0.75732
 Alpha  occ. eigenvalues --   -0.70932  -0.70227  -0.67555  -0.64958  -0.61777
 Alpha  occ. eigenvalues --   -0.60945  -0.58299  -0.58026  -0.56823  -0.55134
 Alpha  occ. eigenvalues --   -0.53572  -0.52954  -0.51309  -0.50794  -0.50315
 Alpha  occ. eigenvalues --   -0.49063  -0.47595  -0.46825  -0.45541  -0.45441
 Alpha  occ. eigenvalues --   -0.45106  -0.43870  -0.43346  -0.43032  -0.42471
 Alpha  occ. eigenvalues --   -0.40281  -0.38823  -0.36937  -0.36565  -0.33508
 Alpha  occ. eigenvalues --   -0.32609
 Alpha virt. eigenvalues --    0.04553   0.05173   0.06752   0.07443   0.08144
 Alpha virt. eigenvalues --    0.08234   0.08635   0.09362   0.09828   0.10445
 Alpha virt. eigenvalues --    0.10620   0.11032   0.11411   0.12178   0.13149

 Mulliken atomic charges:
              1
     1  C   -0.270386
     2  C   -0.253883
     3  C   -0.256774
     4  C   -0.113578
     5  C    0.138053
     6  C   -0.138055
     7  C   -0.007630
     8  C    0.436755
     9  C   -0.226777
    10  O   -0.267002
    11  C    0.097534
    12  O   -0.540249
    13  C   -0.564189
    14  O   -0.468478
    15  C   -0.689784
    16  H    0.180847
    17  H    0.186230
    18  H    0.185816
    19  H    0.183556
    20  H    0.183487
    21  H    0.163950
    22  H    0.200604
    23  H    0.177578
    24  H    0.174299
    25  H    0.401357
    26  H    0.179153
    27  H    0.185349
    28  H    0.189437
    29  H    0.177176
    30  H    0.180332
    31  H    0.175270
 Sum of Mulliken atomic charges =   0.00000

 Dipole moment (field-independent basis, Debye):
    X=              1.6119    Y=             -1.0890    Z=              1.3888  Tot=              2.3902
 Quadrupole moment (field-independent basis, Debye-Ang):
   XX=            -71.9105   YY=            -91.5654   ZZ=            -89.6871
   XY=              3.9361   XZ=             -3.3591   YZ=              0.0710

 Normal termination of Gaussian 09 at Tue May 17 22:28:58 2022.
