 Gaussian 09, Revision C.01,
 Gaussian 09:  EM64L-G09RevC.01 23-Sep-2011

 ----------------------------------------------------------------
 # wb97xd/6-31+g** scrf=(pcm,solvent=chloroform,smd,dovacuum) nmr
 ----------------------------------------------------------------

 99/9=1/99;
 -------
 comment
 -------
 Charge =  0 Multiplicity = 1

                         Standard orientation:
 ---------------------------------------------------------------------
 Center     Atomic      Atomic             Coordinates (Angstroms)
 Number     Number       Type             X           Y           Z
 ---------------------------------------------------------------------
      1          6           0       -1.476425   -1.016865   -1.034614
      2          6           0       -3.246445   -0.726553    1.098662
      3          6           0       -2.291440   -2.083453   -0.650872
      4          6           0       -1.535018    0.210850   -0.356513
      5          6           0       -2.431861    0.340621    0.716021
      6          6           0       -3.176007   -1.937960    0.415084
      7          6           0       -0.633490    1.355686   -0.784851
      8          6           0        0.698300    1.472050   -0.021029
      9          6           0        1.578383    0.283415   -0.364368
     10          8           0        2.163885   -0.263424    0.734077
     11          6           0        3.008307   -1.400589    0.503110
     12          8           0       -1.344047    2.597754   -0.685571
     13          6           0        0.527682    1.719187    1.480765
     14          8           0        1.756392   -0.111839   -1.511636
     15          6           0        4.419671   -0.946887    0.181626
     16          1           0       -0.791238   -1.153596   -1.870440
     17          1           0       -3.934623   -0.612122    1.932281
     18          1           0       -2.234436   -3.028547   -1.185033
     19          1           0       -2.497854    1.277791    1.266157
     20          1           0       -3.809638   -2.768987    0.713582
     21          1           0       -0.424340    1.238800   -1.856144
     22          1           0        1.230764    2.353378   -0.405791
     23          1           0        2.603104   -2.044437   -0.285942
     24          1           0        3.012060   -1.988471    1.426807
     25          1           0       -2.234798    2.436931   -1.044696
     26          1           0        1.494767    1.946287    1.944016
     27          1           0       -0.132160    2.571380    1.671990
     28          1           0        0.121754    0.843575    1.997470
     29          1           0        4.442427   -0.355451   -0.739089
     30          1           0        5.085349   -1.806192    0.061232
     31          1           0        4.809075   -0.307291    0.980519
 ---------------------------------------------------------------------

 SCF Done:  E(RwB97XD) =  -692.443424546     A.U. after   15 cycles

      1  C    Isotropic =    69.6610   Anisotropy =   165.6525

      2  C    Isotropic =    70.8369   Anisotropy =   176.4290

      3  C    Isotropic =    70.4775   Anisotropy =   175.0661

      4  C    Isotropic =    54.6541   Anisotropy =   181.4750

      5  C    Isotropic =    70.9701   Anisotropy =   180.9675

      6  C    Isotropic =    71.2267   Anisotropy =   176.0642

      7  C    Isotropic =   121.9474   Anisotropy =    38.5464

      8  C    Isotropic =   150.2668   Anisotropy =    30.0575

      9  C    Isotropic =    21.5418   Anisotropy =    97.4826

     10  O    Isotropic =   124.4468   Anisotropy =   180.2272

     11  C    Isotropic =   137.3811   Anisotropy =    66.5481

     12  O    Isotropic =   280.8754   Anisotropy =    79.2671

     13  C    Isotropic =   186.9198   Anisotropy =     9.6025

     14  O    Isotropic =   -41.5868   Anisotropy =   566.1748

     15  C    Isotropic =   181.5118   Anisotropy =    26.8276

     16  H    Isotropic =    23.9132   Anisotropy =     8.2049

     17  H    Isotropic =    23.7095   Anisotropy =     4.9797

     18  H    Isotropic =    23.9152   Anisotropy =     5.0232

     19  H    Isotropic =    23.4171   Anisotropy =     9.4693

     20  H    Isotropic =    23.8376   Anisotropy =     4.0183

     21  H    Isotropic =    25.8532   Anisotropy =     6.3353

     22  H    Isotropic =    28.2925   Anisotropy =     6.3482

     23  H    Isotropic =    27.0978   Anisotropy =     5.3100

     24  H    Isotropic =    28.0332   Anisotropy =     7.2653

     25  H    Isotropic =    29.8857   Anisotropy =    15.5214

     26  H    Isotropic =    30.4232   Anisotropy =    10.2881

     27  H    Isotropic =    30.1288   Anisotropy =     8.8275

     28  H    Isotropic =    30.7853   Anisotropy =     5.8598

     29  H    Isotropic =    30.2755   Anisotropy =     6.3467

     30  H    Isotropic =    30.6989   Anisotropy =    11.5984

     31  H    Isotropic =    30.5483   Anisotropy =     8.7298

 The electronic state is 1-A.
 Alpha  occ. eigenvalues --  -19.32900 -19.28145 -19.27396 -10.44263 -10.35998
 Alpha  occ. eigenvalues --  -10.35074 -10.32169 -10.31559 -10.30742 -10.30701
 Alpha  occ. eigenvalues --  -10.30680 -10.30637 -10.30554 -10.28663 -10.28487
 Alpha  occ. eigenvalues --   -1.21053  -1.12922  -1.12349  -0.96224  -0.91265
 Alpha  occ. eigenvalues --   -0.86718  -0.84989  -0.84720  -0.77822  -0.75982
 Alpha  occ. eigenvalues --   -0.71539  -0.70020  -0.67925  -0.64534  -0.62467
 Alpha  occ. eigenvalues --   -0.59353  -0.58196  -0.57259  -0.56637  -0.55658
 Alpha  occ. eigenvalues --   -0.53208  -0.52954  -0.51762  -0.50612  -0.50343
 Alpha  occ. eigenvalues --   -0.48941  -0.47474  -0.46631  -0.46373  -0.45302
 Alpha  occ. eigenvalues --   -0.45214  -0.44327  -0.43189  -0.42151  -0.41726
 Alpha  occ. eigenvalues --   -0.40186  -0.38732  -0.37097  -0.36145  -0.33304
 Alpha  occ. eigenvalues --   -0.32468
 Alpha virt. eigenvalues --    0.04940   0.05195   0.06321   0.06849   0.07978
 Alpha virt. eigenvalues --    0.08294   0.08488   0.09312   0.09729   0.10307
 Alpha virt. eigenvalues --    0.10547   0.11188   0.11918   0.12143   0.12677

 Mulliken atomic charges:
              1
     1  C    0.027109
     2  C   -0.320256
     3  C   -0.313891
     4  C    0.002273
     5  C   -0.111634
     6  C   -0.186690
     7  C    0.110784
     8  C    0.059014
     9  C   -0.045076
    10  O   -0.229403
    11  C    0.018082
    12  O   -0.560317
    13  C   -0.568684
    14  O   -0.472889
    15  C   -0.517098
    16  H    0.178650
    17  H    0.184935
    18  H    0.184212
    19  H    0.185451
    20  H    0.182687
    21  H    0.164635
    22  H    0.215157
    23  H    0.179376
    24  H    0.172866
    25  H    0.394243
    26  H    0.173828
    27  H    0.179702
    28  H    0.181719
    29  H    0.179716
    30  H    0.177594
    31  H    0.173906
 Sum of Mulliken atomic charges =   0.00000

 Dipole moment (field-independent basis, Debye):
    X=             -0.2402    Y=             -1.7422    Z=              1.6921  Tot=              2.4406
 Quadrupole moment (field-independent basis, Debye-Ang):
   XX=            -78.3950   YY=            -87.4789   ZZ=            -92.3082
   XY=             -1.0658   XZ=              2.9447   YZ=              0.0608

 Normal termination of Gaussian 09 at Tue May 17 16:32:12 2022.
