 Gaussian 09, Revision C.01,
 Gaussian 09:  EM64L-G09RevC.01 23-Sep-2011

 ----------------------------------------------------------------
 # wb97xd/6-31+g** scrf=(pcm,solvent=chloroform,smd,dovacuum) nmr
 ----------------------------------------------------------------

 99/9=1/99;
 -------
 comment
 -------
 Charge =  0 Multiplicity = 1

                         Standard orientation:
 ---------------------------------------------------------------------
 Center     Atomic      Atomic             Coordinates (Angstroms)
 Number     Number       Type             X           Y           Z
 ---------------------------------------------------------------------
      1          6           0        1.806850   -1.139736   -1.064227
      2          6           0        2.733925    0.465253    1.016737
      3          6           0        3.032684   -0.480981   -1.180587
      4          6           0        1.026381   -1.004480    0.095790
      5          6           0        1.507391   -0.191509    1.133348
      6          6           0        3.495562    0.321230   -0.140244
      7          6           0       -0.312944   -1.712956    0.192713
      8          6           0       -1.415239   -1.041095   -0.643211
      9          6           0       -1.706901    0.362268   -0.148730
     10          8           0       -1.076447    1.278677   -0.937181
     11          6           0       -1.283268    2.654859   -0.588581
     12          8           0       -0.684138   -1.877078    1.560410
     13          6           0       -2.715845   -1.847274   -0.655587
     14          8           0       -2.436093    0.632001    0.796632
     15          6           0       -0.273149    3.092350    0.454703
     16          1           0        1.465104   -1.761845   -1.888346
     17          1           0        3.091645    1.089524    1.831200
     18          1           0        3.627191   -0.594595   -2.083255
     19          1           0        0.924132   -0.064569    2.044075
     20          1           0        4.449896    0.833003   -0.229744
     21          1           0       -0.157259   -2.731060   -0.188767
     22          1           0       -1.084563   -0.967722   -1.688306
     23          1           0       -2.310789    2.830294   -0.249981
     24          1           0       -1.143445    3.240366   -1.503206
     25          1           0       -1.465791   -2.451195    1.600870
     26          1           0       -3.453302   -1.373613   -1.313450
     27          1           0       -2.539802   -2.863359   -1.023322
     28          1           0       -3.169672   -1.916146    0.338531
     29          1           0       -0.386350    2.515681    1.377978
     30          1           0       -0.393359    4.153756    0.689253
     31          1           0        0.747104    2.925102    0.094834
 ---------------------------------------------------------------------

 SCF Done:  E(RwB97XD) =  -692.444522793     A.U. after   15 cycles

      1  C    Isotropic =    71.9912   Anisotropy =   167.4951

      2  C    Isotropic =    69.7803   Anisotropy =   178.1784

      3  C    Isotropic =    71.1012   Anisotropy =   176.1601

      4  C    Isotropic =    54.5653   Anisotropy =   179.4415

      5  C    Isotropic =    72.6511   Anisotropy =   184.9968

      6  C    Isotropic =    72.4122   Anisotropy =   174.9501

      7  C    Isotropic =   120.4553   Anisotropy =    30.9341

      8  C    Isotropic =   147.4687   Anisotropy =    10.6542

      9  C    Isotropic =    21.0419   Anisotropy =   100.6618

     10  O    Isotropic =   121.8682   Anisotropy =   154.2084

     11  C    Isotropic =   138.2289   Anisotropy =    65.3334

     12  O    Isotropic =   308.0514   Anisotropy =    55.8260

     13  C    Isotropic =   180.4531   Anisotropy =    27.9065

     14  O    Isotropic =   -47.5524   Anisotropy =   578.9634

     15  C    Isotropic =   180.8437   Anisotropy =    21.1230

     16  H    Isotropic =    23.8146   Anisotropy =     8.1274

     17  H    Isotropic =    23.7816   Anisotropy =     4.8444

     18  H    Isotropic =    23.6955   Anisotropy =     4.4558

     19  H    Isotropic =    23.5770   Anisotropy =     8.9767

     20  H    Isotropic =    23.8764   Anisotropy =     3.7643

     21  H    Isotropic =    26.5549   Anisotropy =     7.0840

     22  H    Isotropic =    28.5996   Anisotropy =     4.8828

     23  H    Isotropic =    27.1795   Anisotropy =     7.3842

     24  H    Isotropic =    28.2843   Anisotropy =     9.1148

     25  H    Isotropic =    29.1612   Anisotropy =    18.2742

     26  H    Isotropic =    30.3843   Anisotropy =    10.2751

     27  H    Isotropic =    30.6162   Anisotropy =    10.4747

     28  H    Isotropic =    29.9857   Anisotropy =     7.0129

     29  H    Isotropic =    30.6007   Anisotropy =     3.9452

     30  H    Isotropic =    30.9285   Anisotropy =    11.8554

     31  H    Isotropic =    31.3976   Anisotropy =     7.9390

 The electronic state is 1-A.
 Alpha  occ. eigenvalues --  -19.32578 -19.28298 -19.27318 -10.43755 -10.36440
 Alpha  occ. eigenvalues --  -10.34800 -10.31894 -10.31651 -10.30684 -10.30577
 Alpha  occ. eigenvalues --  -10.30445 -10.30339 -10.30323 -10.29260 -10.28406
 Alpha  occ. eigenvalues --   -1.20670  -1.13256  -1.12144  -0.96136  -0.91259
 Alpha  occ. eigenvalues --   -0.86561  -0.85383  -0.84554  -0.77994  -0.76267
 Alpha  occ. eigenvalues --   -0.70763  -0.70097  -0.67569  -0.64365  -0.61962
 Alpha  occ. eigenvalues --   -0.60428  -0.58556  -0.57239  -0.56387  -0.54739
 Alpha  occ. eigenvalues --   -0.53769  -0.52883  -0.52007  -0.51263  -0.50155
 Alpha  occ. eigenvalues --   -0.48811  -0.47477  -0.46723  -0.45954  -0.44977
 Alpha  occ. eigenvalues --   -0.44673  -0.44299  -0.43443  -0.41990  -0.41617
 Alpha  occ. eigenvalues --   -0.40598  -0.38906  -0.37541  -0.35634  -0.33072
 Alpha  occ. eigenvalues --   -0.32212
 Alpha virt. eigenvalues --    0.05141   0.05454   0.06477   0.07013   0.07340
 Alpha virt. eigenvalues --    0.08284   0.08735   0.09478   0.09899   0.10291
 Alpha virt. eigenvalues --    0.10554   0.10932   0.11874   0.12350   0.12832

 Mulliken atomic charges:
              1
     1  C   -0.099396
     2  C   -0.081030
     3  C   -0.217535
     4  C   -0.371234
     5  C   -0.025566
     6  C   -0.198178
     7  C    0.132974
     8  C    0.229359
     9  C   -0.077784
    10  O   -0.198528
    11  C   -0.032979
    12  O   -0.564392
    13  C   -0.651593
    14  O   -0.443438
    15  C   -0.485440
    16  H    0.174672
    17  H    0.179497
    18  H    0.184019
    19  H    0.182234
    20  H    0.180844
    21  H    0.159740
    22  H    0.200654
    23  H    0.177891
    24  H    0.173392
    25  H    0.402895
    26  H    0.182933
    27  H    0.176624
    28  H    0.180618
    29  H    0.178686
    30  H    0.174995
    31  H    0.175065
 Sum of Mulliken atomic charges =   0.00000

 Dipole moment (field-independent basis, Debye):
    X=              0.1949    Y=             -0.5350    Z=             -3.3316  Tot=              3.3799
 Quadrupole moment (field-independent basis, Debye-Ang):
   XX=            -88.8286   YY=            -76.7755   ZZ=            -90.6606
   XY=              8.2406   XZ=              2.8871   YZ=              3.5173

 Normal termination of Gaussian 09 at Tue May 17 17:15:54 2022.
