 Gaussian 09, Revision C.01,
 Gaussian 09:  EM64L-G09RevC.01 23-Sep-2011

 ----------------------------------------------------------------
 # wb97xd/6-31+g** scrf=(pcm,solvent=chloroform,smd,dovacuum) nmr
 ----------------------------------------------------------------

 99/9=1/99;
 -------
 comment
 -------
 Charge =  0 Multiplicity = 1

                         Standard orientation:
 ---------------------------------------------------------------------
 Center     Atomic      Atomic             Coordinates (Angstroms)
 Number     Number       Type             X           Y           Z
 ---------------------------------------------------------------------
      1          6           0       -2.695985    0.862653    0.855104
      2          6           0       -3.732232   -0.888806   -1.053314
      3          6           0       -4.033200    0.961127    0.466430
      4          6           0       -1.860646   -0.113480    0.292186
      5          6           0       -2.395162   -0.988984   -0.666810
      6          6           0       -4.550369    0.086268   -0.486952
      7          6           0       -0.407365   -0.210970    0.715864
      8          6           0        0.590838    0.133785   -0.398530
      9          6           0        1.974754    0.176363    0.212690
     10          8           0        2.820559   -0.649944   -0.464965
     11          6           0        4.169147   -0.699198    0.021395
     12          8           0       -0.171312   -1.557139    1.150395
     13          6           0        0.337177    1.486122   -1.063779
     14          8           0        2.293007    0.893269    1.153655
     15          6           0        4.996040    0.399130   -0.620130
     16          1           0       -2.311012    1.557259    1.599200
     17          1           0       -4.135322   -1.572229   -1.796325
     18          1           0       -4.672123    1.722160    0.907456
     19          1           0       -1.768532   -1.758177   -1.114990
     20          1           0       -5.591679    0.164495   -0.788608
     21          1           0       -0.241197    0.426657    1.592911
     22          1           0        0.575568   -0.650975   -1.166157
     23          1           0        4.574936   -1.676740   -0.258977
     24          1           0        4.201545   -0.639438    1.115358
     25          1           0       -0.965745   -1.842479    1.636314
     26          1           0        1.151145    1.738791   -1.752791
     27          1           0       -0.592472    1.479867   -1.641094
     28          1           0        0.274605    2.290388   -0.322142
     29          1           0        4.955280    0.323077   -1.711693
     30          1           0        6.040004    0.335602   -0.300550
     31          1           0        4.608984    1.388194   -0.355513
 ---------------------------------------------------------------------

 SCF Done:  E(RwB97XD) =  -692.445151701     A.U. after   16 cycles

      1  C    Isotropic =    70.1231   Anisotropy =   161.9018

      2  C    Isotropic =    68.7971   Anisotropy =   176.2662

      3  C    Isotropic =    69.8196   Anisotropy =   173.2852

      4  C    Isotropic =    52.6680   Anisotropy =   185.8172

      5  C    Isotropic =    74.0833   Anisotropy =   183.1422

      6  C    Isotropic =    71.8555   Anisotropy =   178.9104

      7  C    Isotropic =   117.2316   Anisotropy =    27.2435

      8  C    Isotropic =   147.8626   Anisotropy =    25.6593

      9  C    Isotropic =    16.7871   Anisotropy =   100.9273

     10  O    Isotropic =   125.0206   Anisotropy =   146.6790

     11  C    Isotropic =   137.5879   Anisotropy =    65.6505

     12  O    Isotropic =   264.5364   Anisotropy =    47.4397

     13  C    Isotropic =   180.9290   Anisotropy =    21.1477

     14  O    Isotropic =   -23.0686   Anisotropy =   552.2875

     15  C    Isotropic =   181.5170   Anisotropy =    25.7600

     16  H    Isotropic =    23.7041   Anisotropy =     7.8155

     17  H    Isotropic =    23.7265   Anisotropy =     5.0225

     18  H    Isotropic =    23.8452   Anisotropy =     4.6873

     19  H    Isotropic =    23.3533   Anisotropy =     9.8100

     20  H    Isotropic =    23.6474   Anisotropy =     4.3124

     21  H    Isotropic =    26.6274   Anisotropy =     4.3658

     22  H    Isotropic =    28.5316   Anisotropy =     4.3751

     23  H    Isotropic =    27.7080   Anisotropy =     7.9428

     24  H    Isotropic =    26.8443   Anisotropy =     5.8007

     25  H    Isotropic =    29.9091   Anisotropy =    14.9892

     26  H    Isotropic =    30.7267   Anisotropy =     9.9906

     27  H    Isotropic =    31.3421   Anisotropy =     6.6848

     28  H    Isotropic =    30.7373   Anisotropy =     7.9229

     29  H    Isotropic =    30.4357   Anisotropy =     8.3546

     30  H    Isotropic =    30.6007   Anisotropy =    11.4251

     31  H    Isotropic =    30.2745   Anisotropy =     6.1803

 The electronic state is 1-A.
 Alpha  occ. eigenvalues --  -19.32734 -19.28136 -19.27415 -10.43845 -10.35948
 Alpha  occ. eigenvalues --  -10.34853 -10.31884 -10.31591 -10.30879 -10.30878
 Alpha  occ. eigenvalues --  -10.30821 -10.30786 -10.30697 -10.29341 -10.28558
 Alpha  occ. eigenvalues --   -1.20797  -1.13007  -1.12295  -0.96347  -0.91461
 Alpha  occ. eigenvalues --   -0.86765  -0.85103  -0.84881  -0.77909  -0.76259
 Alpha  occ. eigenvalues --   -0.71447  -0.70275  -0.67405  -0.64179  -0.61739
 Alpha  occ. eigenvalues --   -0.61078  -0.58338  -0.57601  -0.56251  -0.55246
 Alpha  occ. eigenvalues --   -0.53354  -0.52880  -0.52260  -0.50687  -0.50052
 Alpha  occ. eigenvalues --   -0.48824  -0.48225  -0.46855  -0.46188  -0.45276
 Alpha  occ. eigenvalues --   -0.45008  -0.44004  -0.43610  -0.42511  -0.41819
 Alpha  occ. eigenvalues --   -0.40313  -0.38635  -0.36923  -0.36569  -0.33500
 Alpha  occ. eigenvalues --   -0.32600
 Alpha virt. eigenvalues --    0.04566   0.05181   0.06805   0.07345   0.07926
 Alpha virt. eigenvalues --    0.08239   0.08596   0.09412   0.09860   0.10211
 Alpha virt. eigenvalues --    0.10596   0.11000   0.11777   0.12096   0.12848

 Mulliken atomic charges:
              1
     1  C   -0.267422
     2  C   -0.248741
     3  C   -0.257373
     4  C   -0.099968
     5  C    0.126767
     6  C   -0.141258
     7  C    0.008703
     8  C    0.220677
     9  C   -0.108612
    10  O   -0.239147
    11  C   -0.048452
    12  O   -0.540251
    13  C   -0.556767
    14  O   -0.473691
    15  C   -0.497062
    16  H    0.180672
    17  H    0.186094
    18  H    0.185779
    19  H    0.184120
    20  H    0.183557
    21  H    0.164361
    22  H    0.200732
    23  H    0.173128
    24  H    0.179940
    25  H    0.400600
    26  H    0.179687
    27  H    0.185744
    28  H    0.188751
    29  H    0.172879
    30  H    0.176948
    31  H    0.179602
 Sum of Mulliken atomic charges =   0.00000

 Dipole moment (field-independent basis, Debye):
    X=             -1.6054    Y=             -0.1294    Z=             -1.6763  Tot=              2.3247
 Quadrupole moment (field-independent basis, Debye-Ang):
   XX=            -72.3774   YY=            -90.6262   ZZ=            -89.9336
   XY=             -3.4087   XZ=             -4.6041   YZ=              0.3089

 Normal termination of Gaussian 09 at Wed May 18 00:04:31 2022.
