 Gaussian 09, Revision C.01,
 Gaussian 09:  EM64L-G09RevC.01 23-Sep-2011

 ----------------------------------------------------------------
 # wb97xd/6-31+g** scrf=(pcm,solvent=chloroform,smd,dovacuum) nmr
 ----------------------------------------------------------------

 99/9=1/99;
 -------
 comment
 -------
 Charge =  0 Multiplicity = 1

                         Standard orientation:
 ---------------------------------------------------------------------
 Center     Atomic      Atomic             Coordinates (Angstroms)
 Number     Number       Type             X           Y           Z
 ---------------------------------------------------------------------
      1          6           0       -1.005966   -1.377827   -0.391263
      2          6           0       -3.573763   -0.547193    0.302942
      3          6           0       -1.944512   -2.307382    0.062089
      4          6           0       -1.336612   -0.017113   -0.499925
      5          6           0       -2.635661    0.382723   -0.149282
      6          6           0       -3.227324   -1.891624    0.410196
      7          6           0       -0.297726    0.981373   -0.974887
      8          6           0        0.588410    1.579425    0.132886
      9          6           0        1.497685    0.528015    0.737231
     10          8           0        2.304414   -0.004182   -0.227296
     11          6           0        3.221636   -0.995076    0.254491
     12          8           0       -0.950205    2.044933   -1.682644
     13          6           0       -0.192459    2.322228    1.220011
     14          8           0        1.545331    0.226126    1.921337
     15          6           0        4.008441   -1.523706   -0.928703
     16          1           0       -0.012827   -1.729031   -0.661901
     17          1           0       -4.574776   -0.219467    0.570347
     18          1           0       -1.674011   -3.356835    0.143690
     19          1           0       -2.924527    1.429049   -0.230099
     20          1           0       -3.957458   -2.614770    0.763222
     21          1           0        0.323782    0.475022   -1.724615
     22          1           0        1.248151    2.331062   -0.323502
     23          1           0        2.668262   -1.815094    0.725834
     24          1           0        3.904343   -0.541965    0.981807
     25          1           0       -0.269365    2.507661   -2.198979
     26          1           0        0.496903    2.818107    1.913023
     27          1           0       -0.839863    3.092457    0.789154
     28          1           0       -0.809832    1.643100    1.817053
     29          1           0        3.335604   -1.959424   -1.674786
     30          1           0        4.725515   -2.285922   -0.611446
     31          1           0        4.550879   -0.712025   -1.424697
 ---------------------------------------------------------------------

 SCF Done:  E(RwB97XD) =  -692.445177146     A.U. after   16 cycles

      1  C    Isotropic =    72.3367   Anisotropy =   164.7780

      2  C    Isotropic =    70.6778   Anisotropy =   175.9707

      3  C    Isotropic =    70.4959   Anisotropy =   173.8896

      4  C    Isotropic =    57.3236   Anisotropy =   177.5809

      5  C    Isotropic =    70.9429   Anisotropy =   182.8543

      6  C    Isotropic =    71.6493   Anisotropy =   175.5079

      7  C    Isotropic =   122.4741   Anisotropy =    37.6763

      8  C    Isotropic =   147.1843   Anisotropy =    28.2850

      9  C    Isotropic =    20.9070   Anisotropy =    95.6959

     10  O    Isotropic =   130.2476   Anisotropy =   173.3281

     11  C    Isotropic =   136.2909   Anisotropy =    58.1596

     12  O    Isotropic =   287.4471   Anisotropy =    91.2280

     13  C    Isotropic =   186.6728   Anisotropy =    10.7100

     14  O    Isotropic =   -56.1062   Anisotropy =   577.2136

     15  C    Isotropic =   182.2368   Anisotropy =    23.0687

     16  H    Isotropic =    24.1476   Anisotropy =     8.1121

     17  H    Isotropic =    23.6960   Anisotropy =     4.9343

     18  H    Isotropic =    23.8918   Anisotropy =     5.4671

     19  H    Isotropic =    23.4169   Anisotropy =     9.8213

     20  H    Isotropic =    23.8659   Anisotropy =     4.0106

     21  H    Isotropic =    25.9060   Anisotropy =     7.1733

     22  H    Isotropic =    28.6527   Anisotropy =     5.7807

     23  H    Isotropic =    27.4517   Anisotropy =     5.9447

     24  H    Isotropic =    27.4985   Anisotropy =     7.2430

     25  H    Isotropic =    29.7187   Anisotropy =    18.9277

     26  H    Isotropic =    30.7232   Anisotropy =    11.0545

     27  H    Isotropic =    30.1423   Anisotropy =     8.8980

     28  H    Isotropic =    31.0010   Anisotropy =     6.0340

     29  H    Isotropic =    30.1822   Anisotropy =     7.3569

     30  H    Isotropic =    30.3280   Anisotropy =    10.9684

     31  H    Isotropic =    30.2614   Anisotropy =     8.6181

 The electronic state is 1-A.
 Alpha  occ. eigenvalues --  -19.32850 -19.28349 -19.27795 -10.44072 -10.36323
 Alpha  occ. eigenvalues --  -10.35122 -10.31982 -10.31681 -10.30747 -10.30571
 Alpha  occ. eigenvalues --  -10.30517 -10.30455 -10.30385 -10.28936 -10.28427
 Alpha  occ. eigenvalues --   -1.21138  -1.13075  -1.12608  -0.96185  -0.91290
 Alpha  occ. eigenvalues --   -0.86882  -0.85281  -0.84603  -0.77926  -0.75604
 Alpha  occ. eigenvalues --   -0.70727  -0.69960  -0.67528  -0.65315  -0.61159
 Alpha  occ. eigenvalues --   -0.60330  -0.58903  -0.58796  -0.56698  -0.55962
 Alpha  occ. eigenvalues --   -0.54010  -0.52632  -0.50788  -0.50288  -0.49782
 Alpha  occ. eigenvalues --   -0.49414  -0.48157  -0.46043  -0.45561  -0.44756
 Alpha  occ. eigenvalues --   -0.44285  -0.44039  -0.43808  -0.43362  -0.42162
 Alpha  occ. eigenvalues --   -0.40630  -0.38779  -0.37723  -0.35869  -0.33120
 Alpha  occ. eigenvalues --   -0.32545
 Alpha virt. eigenvalues --    0.05045   0.05297   0.06439   0.07025   0.07788
 Alpha virt. eigenvalues --    0.08157   0.08441   0.09474   0.09713   0.10273
 Alpha virt. eigenvalues --    0.10692   0.11354   0.11667   0.12083   0.12499

 Mulliken atomic charges:
              1
     1  C    0.013344
     2  C   -0.358893
     3  C   -0.301771
     4  C   -0.270422
     5  C    0.145073
     6  C   -0.134057
     7  C    0.198577
     8  C    0.159743
     9  C   -0.177182
    10  O   -0.271635
    11  C    0.127059
    12  O   -0.573846
    13  C   -0.559059
    14  O   -0.446491
    15  C   -0.644314
    16  H    0.173118
    17  H    0.184810
    18  H    0.183820
    19  H    0.184030
    20  H    0.182001
    21  H    0.167088
    22  H    0.202318
    23  H    0.174962
    24  H    0.176825
    25  H    0.397917
    26  H    0.173175
    27  H    0.177272
    28  H    0.184706
    29  H    0.174841
    30  H    0.181246
    31  H    0.175744
 Sum of Mulliken atomic charges =   0.00000

 Dipole moment (field-independent basis, Debye):
    X=              2.6792    Y=             -0.2951    Z=             -2.3129  Tot=              3.5517
 Quadrupole moment (field-independent basis, Debye-Ang):
   XX=            -80.1080   YY=            -78.9506   ZZ=            -98.7687
   XY=              1.0524   XZ=             -9.3953   YZ=             -2.3867

 Normal termination of Gaussian 09 at Wed May 18 00:10:22 2022.
