 Gaussian 09, Revision C.01,
 Gaussian 09:  EM64L-G09RevC.01 23-Sep-2011

 ----------------------------------------------------------------
 # wb97xd/6-31+g** scrf=(pcm,solvent=chloroform,smd,dovacuum) nmr
 ----------------------------------------------------------------

 99/9=1/99;
 -------
 comment
 -------
 Charge =  0 Multiplicity = 1

                         Standard orientation:
 ---------------------------------------------------------------------
 Center     Atomic      Atomic             Coordinates (Angstroms)
 Number     Number       Type             X           Y           Z
 ---------------------------------------------------------------------
      1          6           0       -1.241248   -1.282492   -0.600125
      2          6           0       -3.638763   -0.375885    0.493337
      3          6           0       -2.215199   -2.196445   -0.191870
      4          6           0       -1.450344    0.099625   -0.463569
      5          6           0       -2.665103    0.538280    0.086388
      6          6           0       -3.412795   -1.742972    0.355624
      7          6           0       -0.372675    1.077118   -0.893893
      8          6           0        0.679656    1.404177    0.180718
      9          6           0        1.548438    0.198883    0.480537
     10          8           0        2.219093   -0.182983   -0.646148
     11          6           0        3.102627   -1.305399   -0.497430
     12          8           0       -0.985607    2.295457   -1.338745
     13          6           0        0.094170    1.995268    1.465534
     14          8           0        1.672766   -0.330068    1.575813
     15          6           0        4.468403   -0.837922   -0.031354
     16          1           0       -0.316684   -1.662476   -1.028692
     17          1           0       -4.573164   -0.018057    0.917340
     18          1           0       -2.038602   -3.263280   -0.300795
     19          1           0       -2.859644    1.603289    0.198988
     20          1           0       -4.170291   -2.454084    0.673695
     21          1           0        0.112804    0.656725   -1.784023
     22          1           0        1.352087    2.176271   -0.219707
     23          1           0        3.190541   -1.774410   -1.482892
     24          1           0        2.681341   -2.057364    0.179583
     25          1           0       -0.319632    2.782217   -1.852374
     26          1           0        0.897962    2.306654    2.142527
     27          1           0       -0.520773    2.875671    1.253892
     28          1           0       -0.516363    1.267593    2.010130
     29          1           0        4.874156   -0.089663   -0.720126
     30          1           0        5.166213   -1.677874    0.028425
     31          1           0        4.407023   -0.363879    0.953294
 ---------------------------------------------------------------------

 SCF Done:  E(RwB97XD) =  -692.444508495     A.U. after   16 cycles

      1  C    Isotropic =    72.5216   Anisotropy =   165.4610

      2  C    Isotropic =    70.6866   Anisotropy =   175.6280

      3  C    Isotropic =    70.6176   Anisotropy =   173.9129

      4  C    Isotropic =    57.3708   Anisotropy =   176.8128

      5  C    Isotropic =    71.4494   Anisotropy =   183.5903

      6  C    Isotropic =    71.7914   Anisotropy =   176.0120

      7  C    Isotropic =   122.4341   Anisotropy =    37.4895

      8  C    Isotropic =   146.6447   Anisotropy =    29.3292

      9  C    Isotropic =    21.5734   Anisotropy =    94.4012

     10  O    Isotropic =   130.6613   Anisotropy =   165.1934

     11  C    Isotropic =   137.5042   Anisotropy =    65.6228

     12  O    Isotropic =   288.1670   Anisotropy =    90.4346

     13  C    Isotropic =   186.5887   Anisotropy =    10.4705

     14  O    Isotropic =   -49.6120   Anisotropy =   580.1214

     15  C    Isotropic =   181.4562   Anisotropy =    26.6634

     16  H    Isotropic =    24.1421   Anisotropy =     8.3076

     17  H    Isotropic =    23.7263   Anisotropy =     5.0059

     18  H    Isotropic =    23.9101   Anisotropy =     5.3701

     19  H    Isotropic =    23.4564   Anisotropy =     9.9057

     20  H    Isotropic =    23.8446   Anisotropy =     4.0615

     21  H    Isotropic =    26.0176   Anisotropy =     6.5748

     22  H    Isotropic =    28.7035   Anisotropy =     5.7674

     23  H    Isotropic =    27.6391   Anisotropy =     7.3624

     24  H    Isotropic =    26.8285   Anisotropy =     5.7044

     25  H    Isotropic =    29.7590   Anisotropy =    18.8645

     26  H    Isotropic =    30.7254   Anisotropy =    10.8721

     27  H    Isotropic =    30.1971   Anisotropy =     8.8511

     28  H    Isotropic =    30.9481   Anisotropy =     6.0571

     29  H    Isotropic =    30.4537   Anisotropy =     8.5799

     30  H    Isotropic =    30.6104   Anisotropy =    11.5131

     31  H    Isotropic =    30.2663   Anisotropy =     6.4586

 The electronic state is 1-A.
 Alpha  occ. eigenvalues --  -19.32787 -19.28346 -19.27736 -10.44134 -10.36328
 Alpha  occ. eigenvalues --  -10.35127 -10.31982 -10.31673 -10.30735 -10.30558
 Alpha  occ. eigenvalues --  -10.30503 -10.30441 -10.30370 -10.28733 -10.28434
 Alpha  occ. eigenvalues --   -1.20991  -1.13072  -1.12568  -0.96170  -0.91268
 Alpha  occ. eigenvalues --   -0.86643  -0.85184  -0.84583  -0.77986  -0.76119
 Alpha  occ. eigenvalues --   -0.71210  -0.69949  -0.67382  -0.64567  -0.61255
 Alpha  occ. eigenvalues --   -0.60308  -0.59160  -0.57659  -0.57543  -0.54704
 Alpha  occ. eigenvalues --   -0.53335  -0.52970  -0.52550  -0.50271  -0.50175
 Alpha  occ. eigenvalues --   -0.48756  -0.47427  -0.46552  -0.45974  -0.44948
 Alpha  occ. eigenvalues --   -0.44758  -0.44166  -0.43649  -0.42160  -0.42003
 Alpha  occ. eigenvalues --   -0.40599  -0.38809  -0.37618  -0.35889  -0.33102
 Alpha  occ. eigenvalues --   -0.32524
 Alpha virt. eigenvalues --    0.05063   0.05313   0.06407   0.06990   0.07755
 Alpha virt. eigenvalues --    0.08182   0.08483   0.09273   0.09781   0.10651
 Alpha virt. eigenvalues --    0.10748   0.11284   0.11530   0.11944   0.12917

 Mulliken atomic charges:
              1
     1  C   -0.075984
     2  C   -0.331261
     3  C   -0.290760
     4  C   -0.162590
     5  C    0.133426
     6  C   -0.157574
     7  C    0.193438
     8  C    0.106476
     9  C   -0.188673
    10  O   -0.240266
    11  C    0.080463
    12  O   -0.571525
    13  C   -0.566536
    14  O   -0.442084
    15  C   -0.577759
    16  H    0.172925
    17  H    0.184558
    18  H    0.183525
    19  H    0.183918
    20  H    0.181927
    21  H    0.167169
    22  H    0.201186
    23  H    0.171285
    24  H    0.179953
    25  H    0.398219
    26  H    0.172856
    27  H    0.177333
    28  H    0.185048
    29  H    0.173266
    30  H    0.178100
    31  H    0.179943
 Sum of Mulliken atomic charges =   0.00000

 Dipole moment (field-independent basis, Debye):
    X=              2.5171    Y=             -0.0057    Z=             -2.4583  Tot=              3.5184
 Quadrupole moment (field-independent basis, Debye-Ang):
   XX=            -81.7546   YY=            -79.5589   ZZ=            -95.6611
   XY=              2.7695   XZ=            -10.5958   YZ=              1.4969

 Normal termination of Gaussian 09 at Tue May 17 15:58:18 2022.
