 Gaussian 09, Revision C.01,
 Gaussian 09:  EM64L-G09RevC.01 23-Sep-2011

 ----------------------------------------------------------------
 # wb97xd/6-31+g** scrf=(pcm,solvent=chloroform,smd,dovacuum) nmr
 ----------------------------------------------------------------

 99/9=1/99;
 -------
 comment
 -------
 Charge =  0 Multiplicity = 1

                         Standard orientation:
 ---------------------------------------------------------------------
 Center     Atomic      Atomic             Coordinates (Angstroms)
 Number     Number       Type             X           Y           Z
 ---------------------------------------------------------------------
      1          6           0       -2.600958    0.760662   -0.653732
      2          6           0       -2.530994   -1.695646    0.663874
      3          6           0       -3.616762   -0.174461   -0.860677
      4          6           0       -1.539616    0.481577    0.220902
      5          6           0       -1.514921   -0.761879    0.872633
      6          6           0       -3.582148   -1.400970   -0.201100
      7          6           0       -0.437263    1.503855    0.422364
      8          6           0        0.712780    1.407820   -0.592035
      9          6           0        1.303567    0.017450   -0.695288
     10          8           0        1.910086   -0.369838    0.458236
     11          6           0        2.509165   -1.672717    0.448885
     12          8           0        0.032294    1.497887    1.770859
     13          6           0        1.822313    2.424667   -0.325284
     14          8           0        1.260005   -0.652972   -1.720813
     15          6           0        3.928822   -1.590834   -0.079301
     16          1           0       -2.644192    1.709271   -1.184967
     17          1           0       -2.498170   -2.656308    1.171362
     18          1           0       -4.433229    0.051938   -1.541738
     19          1           0       -0.695526   -1.016014    1.542981
     20          1           0       -4.370731   -2.130287   -0.366900
     21          1           0       -0.893064    2.496081    0.302750
     22          1           0        0.299636    1.625905   -1.587261
     23          1           0        1.906494   -2.385262   -0.125919
     24          1           0        2.521699   -2.026093    1.485131
     25          1           0       -0.742658    1.356738    2.342473
     26          1           0        2.604043    2.352404   -1.089636
     27          1           0        1.425073    3.444801   -0.343545
     28          1           0        2.302321    2.263933    0.645909
     29          1           0        3.942982   -1.238821   -1.115618
     30          1           0        4.415868   -2.569054   -0.035993
     31          1           0        4.516460   -0.876983    0.507271
 ---------------------------------------------------------------------

 SCF Done:  E(RwB97XD) =  -692.442155782     A.U. after   16 cycles

      1  C    Isotropic =    70.9695   Anisotropy =   163.8223

      2  C    Isotropic =    69.6617   Anisotropy =   177.9097

      3  C    Isotropic =    70.3422   Anisotropy =   175.3178

      4  C    Isotropic =    51.7635   Anisotropy =   183.2824

      5  C    Isotropic =    74.1928   Anisotropy =   179.1417

      6  C    Isotropic =    71.5672   Anisotropy =   176.9449

      7  C    Isotropic =   121.3481   Anisotropy =    35.5783

      8  C    Isotropic =   145.8314   Anisotropy =    20.4844

      9  C    Isotropic =    20.4453   Anisotropy =   104.1697

     10  O    Isotropic =   130.6818   Anisotropy =   172.8020

     11  C    Isotropic =   138.0624   Anisotropy =    65.1925

     12  O    Isotropic =   290.6576   Anisotropy =    75.3204

     13  C    Isotropic =   180.5674   Anisotropy =    25.8337

     14  O    Isotropic =   -51.3275   Anisotropy =   530.6637

     15  C    Isotropic =   181.5628   Anisotropy =    26.7647

     16  H    Isotropic =    23.8253   Anisotropy =     8.0586

     17  H    Isotropic =    23.7926   Anisotropy =     5.6756

     18  H    Isotropic =    23.7636   Anisotropy =     4.6583

     19  H    Isotropic =    23.5566   Anisotropy =     8.9055

     20  H    Isotropic =    23.8031   Anisotropy =     4.2864

     21  H    Isotropic =    26.5541   Anisotropy =     7.7145

     22  H    Isotropic =    28.7156   Anisotropy =     5.3006

     23  H    Isotropic =    26.9893   Anisotropy =     5.4698

     24  H    Isotropic =    27.6402   Anisotropy =     7.2837

     25  H    Isotropic =    29.9924   Anisotropy =    15.6001

     26  H    Isotropic =    30.3664   Anisotropy =     9.6166

     27  H    Isotropic =    30.3259   Anisotropy =    10.6262

     28  H    Isotropic =    29.6725   Anisotropy =     6.2406

     29  H    Isotropic =    30.3682   Anisotropy =     6.6782

     30  H    Isotropic =    30.6695   Anisotropy =    11.7053

     31  H    Isotropic =    30.4283   Anisotropy =     8.2217

 The electronic state is 1-A.
 Alpha  occ. eigenvalues --  -19.32370 -19.27947 -19.27162 -10.43663 -10.36156
 Alpha  occ. eigenvalues --  -10.34827 -10.31970 -10.31713 -10.30874 -10.30796
 Alpha  occ. eigenvalues --  -10.30764 -10.30733 -10.30587 -10.28971 -10.28513
 Alpha  occ. eigenvalues --   -1.20645  -1.12905  -1.12020  -0.96324  -0.91367
 Alpha  occ. eigenvalues --   -0.86580  -0.85266  -0.84840  -0.77724  -0.75851
 Alpha  occ. eigenvalues --   -0.71287  -0.70191  -0.68341  -0.64533  -0.62175
 Alpha  occ. eigenvalues --   -0.60202  -0.57875  -0.56969  -0.55950  -0.55278
 Alpha  occ. eigenvalues --   -0.53435  -0.52348  -0.52269  -0.50576  -0.50095
 Alpha  occ. eigenvalues --   -0.48453  -0.48343  -0.47082  -0.46008  -0.45480
 Alpha  occ. eigenvalues --   -0.44897  -0.44527  -0.43098  -0.42385  -0.41576
 Alpha  occ. eigenvalues --   -0.40326  -0.38539  -0.36952  -0.35632  -0.33405
 Alpha  occ. eigenvalues --   -0.32392
 Alpha virt. eigenvalues --    0.04909   0.05031   0.06497   0.07327   0.07588
 Alpha virt. eigenvalues --    0.08138   0.08657   0.09564   0.09762   0.10160
 Alpha virt. eigenvalues --    0.10567   0.11280   0.11510   0.12522   0.13071

 Mulliken atomic charges:
              1
     1  C    0.197372
     2  C   -0.205673
     3  C   -0.332088
     4  C   -0.416661
     5  C   -0.308088
     6  C   -0.141052
     7  C    0.315556
     8  C    0.249951
     9  C   -0.020013
    10  O   -0.202746
    11  C    0.097091
    12  O   -0.564633
    13  C   -0.695433
    14  O   -0.450721
    15  C   -0.597662
    16  H    0.176547
    17  H    0.183361
    18  H    0.185858
    19  H    0.182062
    20  H    0.183146
    21  H    0.147138
    22  H    0.202748
    23  H    0.177111
    24  H    0.170590
    25  H    0.393675
    26  H    0.177375
    27  H    0.174768
    28  H    0.190855
    29  H    0.179350
    30  H    0.176198
    31  H    0.174019
 Sum of Mulliken atomic charges =   0.00000

 Dipole moment (field-independent basis, Debye):
    X=             -1.2400    Y=              0.3668    Z=              1.5301  Tot=              2.0033
 Quadrupole moment (field-independent basis, Debye-Ang):
   XX=            -79.7818   YY=            -80.7231   ZZ=            -94.9080
   XY=             -2.8252   XZ=              2.7172   YZ=             -9.0866

 Normal termination of Gaussian 09 at Tue May 17 17:09:21 2022.
