 Gaussian 09, Revision C.01,
 Gaussian 09:  EM64L-G09RevC.01 23-Sep-2011

 ----------------------------------------------------------------
 # wb97xd/6-31+g** scrf=(pcm,solvent=chloroform,smd,dovacuum) nmr
 ----------------------------------------------------------------

 99/9=1/99;
 -------
 comment
 -------
 Charge =  0 Multiplicity = 1

                         Standard orientation:
 ---------------------------------------------------------------------
 Center     Atomic      Atomic             Coordinates (Angstroms)
 Number     Number       Type             X           Y           Z
 ---------------------------------------------------------------------
      1          6           0        1.017773    1.291788   -0.658716
      2          6           0        3.326044    0.531360    0.705161
      3          6           0        1.900569    2.262163   -0.180992
      4          6           0        1.275412   -0.073069   -0.458552
      5          6           0        2.443721   -0.439545    0.228319
      6          6           0        3.053822    1.881726    0.500890
      7          6           0        0.301356   -1.112126   -0.981453
      8          6           0       -0.710303   -1.662653    0.036160
      9          6           0       -1.650835   -0.573340    0.511305
     10          8           0       -2.394930   -0.105192   -0.533377
     11          6           0       -3.393092    0.872491   -0.201501
     12          8           0        1.023442   -2.205127   -1.565419
     13          6           0       -0.080641   -2.398217    1.221285
     14          8           0       -1.762397   -0.192371    1.668374
     15          6           0       -2.793580    2.265719   -0.214949
     16          1           0        0.124881    1.613049   -1.190501
     17          1           0        4.223822    0.232802    1.240399
     18          1           0        1.686623    3.316179   -0.338859
     19          1           0        2.672181   -1.489669    0.402369
     20          1           0        3.738932    2.637555    0.875794
     21          1           0       -0.246640   -0.664057   -1.820133
     22          1           0       -1.332767   -2.411959   -0.473658
     23          1           0       -3.865407    0.647961    0.761745
     24          1           0       -4.174529    0.801695   -0.965219
     25          1           0        1.792785   -1.822777   -2.023696
     26          1           0       -0.859236   -2.865842    1.835056
     27          1           0        0.595946   -3.190225    0.885406
     28          1           0        0.474410   -1.720420    1.877588
     29          1           0       -2.003299    2.361701    0.536111
     30          1           0       -3.560056    3.019303   -0.013245
     31          1           0       -2.338041    2.478439   -1.187517
 ---------------------------------------------------------------------

 SCF Done:  E(RwB97XD) =  -692.444572776     A.U. after   16 cycles

      1  C    Isotropic =    70.1622   Anisotropy =   164.1613

      2  C    Isotropic =    70.4094   Anisotropy =   176.5100

      3  C    Isotropic =    70.5211   Anisotropy =   175.1076

      4  C    Isotropic =    55.5920   Anisotropy =   179.8100

      5  C    Isotropic =    71.2331   Anisotropy =   180.9998

      6  C    Isotropic =    71.1630   Anisotropy =   177.2849

      7  C    Isotropic =   122.4120   Anisotropy =    38.0073

      8  C    Isotropic =   151.3624   Anisotropy =    27.8716

      9  C    Isotropic =    21.2615   Anisotropy =    96.0537

     10  O    Isotropic =   129.3745   Anisotropy =   158.3494

     11  C    Isotropic =   137.0396   Anisotropy =    66.2324

     12  O    Isotropic =   277.6983   Anisotropy =    76.5983

     13  C    Isotropic =   186.5457   Anisotropy =    11.0332

     14  O    Isotropic =   -49.5415   Anisotropy =   580.5794

     15  C    Isotropic =   180.6687   Anisotropy =    22.6844

     16  H    Isotropic =    23.8542   Anisotropy =     6.5783

     17  H    Isotropic =    23.6980   Anisotropy =     4.9634

     18  H    Isotropic =    23.8692   Anisotropy =     5.4936

     19  H    Isotropic =    23.3919   Anisotropy =     9.5340

     20  H    Isotropic =    23.7836   Anisotropy =     4.1247

     21  H    Isotropic =    26.0031   Anisotropy =     6.9757

     22  H    Isotropic =    28.3223   Anisotropy =     6.3878

     23  H    Isotropic =    26.9258   Anisotropy =     7.0215

     24  H    Isotropic =    27.6774   Anisotropy =     8.5960

     25  H    Isotropic =    29.9345   Anisotropy =    14.9128

     26  H    Isotropic =    30.7253   Anisotropy =    11.1220

     27  H    Isotropic =    30.1531   Anisotropy =     8.9941

     28  H    Isotropic =    30.6030   Anisotropy =     6.5348

     29  H    Isotropic =    30.3199   Anisotropy =     5.6243

     30  H    Isotropic =    30.5416   Anisotropy =    11.6752

     31  H    Isotropic =    30.2698   Anisotropy =     6.8371

 The electronic state is 1-A.
 Alpha  occ. eigenvalues --  -19.32744 -19.28221 -19.27729 -10.44192 -10.36214
 Alpha  occ. eigenvalues --  -10.35072 -10.32062 -10.31695 -10.30878 -10.30839
 Alpha  occ. eigenvalues --  -10.30765 -10.30750 -10.30641 -10.28688 -10.28388
 Alpha  occ. eigenvalues --   -1.20947  -1.12968  -1.12521  -0.96353  -0.91361
 Alpha  occ. eigenvalues --   -0.86620  -0.85239  -0.84846  -0.78136  -0.76002
 Alpha  occ. eigenvalues --   -0.70916  -0.70171  -0.68283  -0.64119  -0.62715
 Alpha  occ. eigenvalues --   -0.59304  -0.58547  -0.57260  -0.56645  -0.55893
 Alpha  occ. eigenvalues --   -0.53258  -0.52970  -0.52569  -0.50874  -0.50444
 Alpha  occ. eigenvalues --   -0.48700  -0.47452  -0.46490  -0.46290  -0.45558
 Alpha  occ. eigenvalues --   -0.44641  -0.44057  -0.43464  -0.42494  -0.41767
 Alpha  occ. eigenvalues --   -0.40227  -0.38837  -0.37036  -0.36541  -0.33400
 Alpha  occ. eigenvalues --   -0.32616
 Alpha virt. eigenvalues --    0.04823   0.05027   0.06439   0.06852   0.07864
 Alpha virt. eigenvalues --    0.08168   0.08269   0.09341   0.09866   0.10426
 Alpha virt. eigenvalues --    0.10973   0.11327   0.11713   0.12111   0.13293

 Mulliken atomic charges:
              1
     1  C   -0.031321
     2  C   -0.313356
     3  C   -0.248086
     4  C   -0.140647
     5  C   -0.082398
     6  C   -0.154872
     7  C    0.213479
     8  C    0.083155
     9  C   -0.132909
    10  O   -0.238937
    11  C   -0.011562
    12  O   -0.552379
    13  C   -0.549774
    14  O   -0.448133
    15  C   -0.480644
    16  H    0.170291
    17  H    0.185894
    18  H    0.184354
    19  H    0.186744
    20  H    0.183580
    21  H    0.159889
    22  H    0.206940
    23  H    0.179380
    24  H    0.173305
    25  H    0.391510
    26  H    0.173610
    27  H    0.178740
    28  H    0.184017
    29  H    0.182018
    30  H    0.177289
    31  H    0.170826
 Sum of Mulliken atomic charges =   0.00000

 Dipole moment (field-independent basis, Debye):
    X=              0.0758    Y=              1.9622    Z=             -2.0634  Tot=              2.8484
 Quadrupole moment (field-independent basis, Debye-Ang):
   XX=            -75.9419   YY=            -86.5712   ZZ=            -96.3971
   XY=             -1.9912   XZ=              5.5005   YZ=             -3.6935

 Normal termination of Gaussian 09 at Tue May 17 17:53:20 2022.
