 Gaussian 09, Revision C.01,
 Gaussian 09:  EM64L-G09RevC.01 23-Sep-2011

 ----------------------------------------------------------------
 # wb97xd/6-31+g** scrf=(pcm,solvent=chloroform,smd,dovacuum) nmr
 ----------------------------------------------------------------

 99/9=1/99;
 -------
 comment
 -------
 Charge =  0 Multiplicity = 1

                         Standard orientation:
 ---------------------------------------------------------------------
 Center     Atomic      Atomic             Coordinates (Angstroms)
 Number     Number       Type             X           Y           Z
 ---------------------------------------------------------------------
      1          6           0       -1.731187   -0.575436    1.075228
      2          6           0       -3.240780    0.759514   -0.848051
      3          6           0       -2.863979    0.153415    1.450010
      4          6           0       -1.317478   -0.630192   -0.266072
      5          6           0       -2.108072    0.032866   -1.222297
      6          6           0       -3.615390    0.824321    0.489881
      7          6           0       -0.100587   -1.434974   -0.706126
      8          6           0        1.049511   -1.580864    0.312189
      9          6           0        1.504061   -0.249930    0.874920
     10          8           0        1.666992    0.684812   -0.102536
     11          6           0        2.084239    1.969834    0.376010
     12          8           0        0.409528   -0.927431   -1.945800
     13          6           0        2.261354   -2.312516   -0.263711
     14          8           0        1.730182   -0.065286    2.064707
     15          6           0        2.155791    2.911293   -0.810097
     16          1           0       -1.186677   -1.097543    1.858523
     17          1           0       -3.832493    1.268223   -1.604678
     18          1           0       -3.161663    0.191348    2.495125
     19          1           0       -1.848632   -0.017494   -2.278870
     20          1           0       -4.497211    1.387621    0.782880
     21          1           0       -0.470245   -2.443106   -0.934148
     22          1           0        0.679334   -2.166805    1.163624
     23          1           0        3.071312    1.885156    0.843759
     24          1           0        1.359093    2.348509    1.105096
     25          1           0        0.725022   -0.021918   -1.760548
     26          1           0        3.020895   -2.467293    0.510818
     27          1           0        1.973639   -3.293646   -0.655025
     28          1           0        2.736552   -1.745313   -1.071332
     29          1           0        2.861072    2.535292   -1.558633
     30          1           0        2.471445    3.910391   -0.497160
     31          1           0        1.180052    2.985833   -1.301694
 ---------------------------------------------------------------------

 SCF Done:  E(RwB97XD) =  -692.445572071     A.U. after   16 cycles

      1  C    Isotropic =    73.8062   Anisotropy =   172.3538

      2  C    Isotropic =    69.8391   Anisotropy =   175.2139

      3  C    Isotropic =    70.0183   Anisotropy =   174.8766

      4  C    Isotropic =    52.4664   Anisotropy =   177.9711

      5  C    Isotropic =    71.4722   Anisotropy =   179.6637

      6  C    Isotropic =    72.3298   Anisotropy =   175.8812

      7  C    Isotropic =   123.2988   Anisotropy =    35.9992

      8  C    Isotropic =   149.4483   Anisotropy =    23.6150

      9  C    Isotropic =    17.8189   Anisotropy =   102.1579

     10  O    Isotropic =   137.4903   Anisotropy =   156.1294

     11  C    Isotropic =   136.5572   Anisotropy =    60.4950

     12  O    Isotropic =   291.6298   Anisotropy =    59.0358

     13  C    Isotropic =   180.2552   Anisotropy =    26.8394

     14  O    Isotropic =   -63.2386   Anisotropy =   533.3877

     15  C    Isotropic =   182.7930   Anisotropy =    23.0949

     16  H    Isotropic =    23.8399   Anisotropy =     9.3516

     17  H    Isotropic =    23.6688   Anisotropy =     4.8828

     18  H    Isotropic =    23.8301   Anisotropy =     5.2367

     19  H    Isotropic =    23.1613   Anisotropy =    10.0007

     20  H    Isotropic =    23.8642   Anisotropy =     4.1141

     21  H    Isotropic =    26.7420   Anisotropy =     4.9336

     22  H    Isotropic =    28.0800   Anisotropy =     6.6564

     23  H    Isotropic =    27.6936   Anisotropy =     7.9840

     24  H    Isotropic =    28.0402   Anisotropy =     5.8411

     25  H    Isotropic =    28.4039   Anisotropy =    17.5746

     26  H    Isotropic =    30.2435   Anisotropy =     9.9838

     27  H    Isotropic =    30.2266   Anisotropy =    10.7151

     28  H    Isotropic =    29.8125   Anisotropy =     6.4589

     29  H    Isotropic =    30.4329   Anisotropy =     8.2649

     30  H    Isotropic =    30.6061   Anisotropy =    11.5890

     31  H    Isotropic =    30.7283   Anisotropy =     7.1274

 The electronic state is 1-A.
 Alpha  occ. eigenvalues --  -19.33756 -19.27916 -19.27505 -10.44344 -10.36183
 Alpha  occ. eigenvalues --  -10.35406 -10.31999 -10.31804 -10.30729 -10.30607
 Alpha  occ. eigenvalues --  -10.30582 -10.30490 -10.30385 -10.29269 -10.29039
 Alpha  occ. eigenvalues --   -1.21811  -1.13094  -1.12354  -0.96103  -0.91394
 Alpha  occ. eigenvalues --   -0.87041  -0.85587  -0.84567  -0.77814  -0.75956
 Alpha  occ. eigenvalues --   -0.71305  -0.69568  -0.68171  -0.66661  -0.61510
 Alpha  occ. eigenvalues --   -0.59956  -0.58680  -0.58229  -0.56271  -0.54680
 Alpha  occ. eigenvalues --   -0.53584  -0.52946  -0.52185  -0.51400  -0.50245
 Alpha  occ. eigenvalues --   -0.49459  -0.47793  -0.46920  -0.46094  -0.45601
 Alpha  occ. eigenvalues --   -0.44689  -0.44147  -0.43334  -0.43036  -0.42023
 Alpha  occ. eigenvalues --   -0.40509  -0.39531  -0.37132  -0.36123  -0.33208
 Alpha  occ. eigenvalues --   -0.32401
 Alpha virt. eigenvalues --    0.04900   0.04973   0.06754   0.07158   0.07930
 Alpha virt. eigenvalues --    0.08363   0.08642   0.09523   0.10105   0.10142
 Alpha virt. eigenvalues --    0.10585   0.10824   0.11628   0.12034   0.12622

 Mulliken atomic charges:
              1
     1  C   -0.316314
     2  C   -0.208233
     3  C   -0.257124
     4  C   -0.127051
     5  C    0.164220
     6  C   -0.229214
     7  C   -0.044077
     8  C    0.281926
     9  C   -0.014783
    10  O   -0.289932
    11  C    0.095751
    12  O   -0.518683
    13  C   -0.596140
    14  O   -0.434576
    15  C   -0.642068
    16  H    0.168915
    17  H    0.184107
    18  H    0.183793
    19  H    0.189209
    20  H    0.181967
    21  H    0.184801
    22  H    0.194227
    23  H    0.180423
    24  H    0.179811
    25  H    0.401798
    26  H    0.181126
    27  H    0.179233
    28  H    0.187425
    29  H    0.177666
    30  H    0.183817
    31  H    0.177980
 Sum of Mulliken atomic charges =   0.00000

 Dipole moment (field-independent basis, Debye):
    X=              0.0091    Y=              1.3714    Z=             -0.4829  Tot=              1.4540
 Quadrupole moment (field-independent basis, Debye-Ang):
   XX=            -84.2992   YY=            -80.1565   ZZ=            -98.9029
   XY=              0.1070   XZ=             -4.7434   YZ=             -4.2896

 Normal termination of Gaussian 09 at Tue May 17 16:04:56 2022.
