 Gaussian 09, Revision C.01,
 Gaussian 09:  EM64L-G09RevC.01 23-Sep-2011

 ----------------------------------------------------------------
 # wb97xd/6-31+g** scrf=(pcm,solvent=chloroform,smd,dovacuum) nmr
 ----------------------------------------------------------------

 99/9=1/99;
 -------
 comment
 -------
 Charge =  0 Multiplicity = 1

                         Standard orientation:
 ---------------------------------------------------------------------
 Center     Atomic      Atomic             Coordinates (Angstroms)
 Number     Number       Type             X           Y           Z
 ---------------------------------------------------------------------
      1          6           0       -2.185621    0.376153   -1.167445
      2          6           0       -2.649231   -1.148951    1.119344
      3          6           0       -3.148746   -0.634884   -1.183208
      4          6           0       -1.441640    0.639691   -0.005769
      5          6           0       -1.686130   -0.138527    1.136442
      6          6           0       -3.379915   -1.396908   -0.040194
      7          6           0       -0.378471    1.723273   -0.018290
      8          6           0        0.930624    1.275647   -0.690600
      9          6           0        1.577728    0.137709    0.074124
     10          8           0        1.239974   -1.057229   -0.488095
     11          6           0        1.740898   -2.225908    0.175268
     12          8           0       -0.174576    2.220921    1.303138
     13          6           0        1.935376    2.420429   -0.836275
     14          8           0        2.320484    0.276328    1.037127
     15          6           0        3.119776   -2.574709   -0.351844
     16          1           0       -2.019850    0.957952   -2.071303
     17          1           0       -2.828097   -1.740036    2.013562
     18          1           0       -3.719087   -0.828060   -2.087956
     19          1           0       -1.123176    0.041428    2.051003
     20          1           0       -4.130185   -2.182841   -0.051940
     21          1           0       -0.792794    2.567431   -0.585618
     22          1           0        0.715580    0.918064   -1.706929
     23          1           0        1.748011   -2.094953    1.263479
     24          1           0        1.044735   -3.041771   -0.045185
     25          1           0        0.396428    3.004358    1.252031
     26          1           0        2.828447    2.079876   -1.372382
     27          1           0        1.499221    3.250543   -1.401375
     28          1           0        2.269234    2.804075    0.133424
     29          1           0        3.488153   -3.497097    0.105886
     30          1           0        3.834393   -1.771923   -0.144689
     31          1           0        3.094039   -2.705297   -1.438686
 ---------------------------------------------------------------------

 SCF Done:  E(RwB97XD) =  -692.443873944     A.U. after   16 cycles

      1  C    Isotropic =    72.5130   Anisotropy =   167.5487

      2  C    Isotropic =    69.6946   Anisotropy =   175.9019

      3  C    Isotropic =    70.2901   Anisotropy =   173.8276

      4  C    Isotropic =    53.7987   Anisotropy =   180.9829

      5  C    Isotropic =    73.6272   Anisotropy =   184.0326

      6  C    Isotropic =    72.9810   Anisotropy =   176.2953

      7  C    Isotropic =   120.8249   Anisotropy =    32.4750

      8  C    Isotropic =   147.1884   Anisotropy =    11.5845

      9  C    Isotropic =    21.3041   Anisotropy =    97.0783

     10  O    Isotropic =   122.4878   Anisotropy =   148.8175

     11  C    Isotropic =   138.2042   Anisotropy =    65.5984

     12  O    Isotropic =   308.4834   Anisotropy =    54.7286

     13  C    Isotropic =   180.4421   Anisotropy =    27.1130

     14  O    Isotropic =   -48.6196   Anisotropy =   579.5668

     15  C    Isotropic =   181.6033   Anisotropy =    27.3145

     16  H    Isotropic =    23.8798   Anisotropy =     8.0767

     17  H    Isotropic =    23.7626   Anisotropy =     4.9228

     18  H    Isotropic =    23.7282   Anisotropy =     4.4385

     19  H    Isotropic =    23.5932   Anisotropy =     9.2987

     20  H    Isotropic =    23.7859   Anisotropy =     3.9797

     21  H    Isotropic =    26.6220   Anisotropy =     7.2404

     22  H    Isotropic =    28.7092   Anisotropy =     4.5783

     23  H    Isotropic =    27.2650   Anisotropy =     5.0041

     24  H    Isotropic =    28.5293   Anisotropy =     6.2396

     25  H    Isotropic =    29.2087   Anisotropy =    18.2531

     26  H    Isotropic =    30.3835   Anisotropy =     9.9609

     27  H    Isotropic =    30.6644   Anisotropy =    10.5000

     28  H    Isotropic =    29.9759   Anisotropy =     7.0265

     29  H    Isotropic =    30.8316   Anisotropy =    11.7608

     30  H    Isotropic =    30.4386   Anisotropy =     6.7215

     31  H    Isotropic =    30.7327   Anisotropy =     8.5783

 The electronic state is 1-A.
 Alpha  occ. eigenvalues --  -19.32540 -19.28319 -19.27329 -10.43750 -10.36445
 Alpha  occ. eigenvalues --  -10.34807 -10.31889 -10.31627 -10.30670 -10.30569
 Alpha  occ. eigenvalues --  -10.30461 -10.30351 -10.30332 -10.29198 -10.28537
 Alpha  occ. eigenvalues --   -1.20677  -1.13267  -1.12155  -0.96126  -0.91253
 Alpha  occ. eigenvalues --   -0.86548  -0.85425  -0.84553  -0.77958  -0.76252
 Alpha  occ. eigenvalues --   -0.70822  -0.70150  -0.67501  -0.64383  -0.61968
 Alpha  occ. eigenvalues --   -0.60399  -0.58053  -0.57667  -0.56925  -0.54592
 Alpha  occ. eigenvalues --   -0.53638  -0.52780  -0.51863  -0.51278  -0.50145
 Alpha  occ. eigenvalues --   -0.48319  -0.47648  -0.47306  -0.46156  -0.44916
 Alpha  occ. eigenvalues --   -0.44678  -0.43939  -0.43475  -0.42053  -0.41733
 Alpha  occ. eigenvalues --   -0.40595  -0.38706  -0.37761  -0.35588  -0.33096
 Alpha  occ. eigenvalues --   -0.32220
 Alpha virt. eigenvalues --    0.05199   0.05386   0.06381   0.07185   0.07432
 Alpha virt. eigenvalues --    0.08262   0.08647   0.09736   0.09962   0.10462
 Alpha virt. eigenvalues --    0.10538   0.10764   0.11889   0.12053   0.12844

 Mulliken atomic charges:
              1
     1  C   -0.036130
     2  C   -0.174563
     3  C   -0.254260
     4  C   -0.382304
     5  C   -0.003837
     6  C   -0.165116
     7  C    0.198799
     8  C    0.209876
     9  C   -0.087896
    10  O   -0.197977
    11  C    0.042464
    12  O   -0.570102
    13  C   -0.635437
    14  O   -0.444797
    15  C   -0.581392
    16  H    0.174740
    17  H    0.180263
    18  H    0.183936
    19  H    0.180733
    20  H    0.180673
    21  H    0.158540
    22  H    0.200976
    23  H    0.177801
    24  H    0.174069
    25  H    0.403593
    26  H    0.182254
    27  H    0.175601
    28  H    0.179776
    29  H    0.176945
    30  H    0.179385
    31  H    0.173388
 Sum of Mulliken atomic charges =   0.00000

 Dipole moment (field-independent basis, Debye):
    X=             -0.0976    Y=             -0.1545    Z=             -3.3750  Tot=              3.3800
 Quadrupole moment (field-independent basis, Debye-Ang):
   XX=            -92.3393   YY=            -74.9525   ZZ=            -89.7727
   XY=              3.1475   XZ=             -1.6140   YZ=             -7.0709

 Normal termination of Gaussian 09 at Tue May 17 17:22:39 2022.
