 Gaussian 09, Revision C.01,
 Gaussian 09:  EM64L-G09RevC.01 23-Sep-2011

 ----------------------------------------------------------------
 # wb97xd/6-31+g** scrf=(pcm,solvent=chloroform,smd,dovacuum) nmr
 ----------------------------------------------------------------

 99/9=1/99;
 -------
 comment
 -------
 Charge =  0 Multiplicity = 1

                         Standard orientation:
 ---------------------------------------------------------------------
 Center     Atomic      Atomic             Coordinates (Angstroms)
 Number     Number       Type             X           Y           Z
 ---------------------------------------------------------------------
      1          6           0        2.595648    0.622245   -1.049386
      2          6           0        3.747750   -0.892714    0.989349
      3          6           0        3.967197    0.708405   -0.801756
      4          6           0        1.781847   -0.222282   -0.278319
      5          6           0        2.376456   -0.979321    0.743870
      6          6           0        4.542166   -0.047768    0.217583
      7          6           0        0.289891   -0.285752   -0.534652
      8          6           0       -0.560129    0.399957    0.552680
      9          6           0       -1.966291    0.569972    0.004242
     10          8           0       -2.586893   -0.644929   -0.071094
     11          6           0       -3.938962   -0.628693   -0.557889
     12          8           0       -0.044041   -1.678877   -0.620947
     13          6           0       -0.033256    1.772338    0.984080
     14          8           0       -2.471152    1.631332   -0.332677
     15          6           0       -4.902494   -0.361596    0.582919
     16          1           0        2.166725    1.221425   -1.849472
     17          1           0        4.195421   -1.489300    1.779653
     18          1           0        4.587678    1.364781   -1.406294
     19          1           0        1.768788   -1.651542    1.346175
     20          1           0        5.610153    0.017482    0.407317
     21          1           0        0.070998    0.143459   -1.520638
     22          1           0       -0.635094   -0.231119    1.448091
     23          1           0       -4.136214   -1.618411   -0.982564
     24          1           0       -4.061529    0.099232   -1.367932
     25          1           0       -1.010736   -1.750073   -0.716126
     26          1           0       -0.741577    2.266550    1.658950
     27          1           0        0.916620    1.686484    1.520757
     28          1           0        0.115744    2.432787    0.122502
     29          1           0       -4.766140   -1.098153    1.381556
     30          1           0       -5.938127   -0.406367    0.234362
     31          1           0       -4.724963    0.623808    1.025085
 ---------------------------------------------------------------------

 SCF Done:  E(RwB97XD) =  -692.444426190     A.U. after   16 cycles

      1  C    Isotropic =    68.5333   Anisotropy =   161.1884

      2  C    Isotropic =    69.7907   Anisotropy =   176.6108

      3  C    Isotropic =    70.6530   Anisotropy =   173.7824

      4  C    Isotropic =    55.1018   Anisotropy =   183.8914

      5  C    Isotropic =    73.2554   Anisotropy =   183.4861

      6  C    Isotropic =    71.1323   Anisotropy =   175.3415

      7  C    Isotropic =   118.5380   Anisotropy =    33.3362

      8  C    Isotropic =   147.9189   Anisotropy =    14.3419

      9  C    Isotropic =    18.8547   Anisotropy =    93.8967

     10  O    Isotropic =   130.8391   Anisotropy =   140.8956

     11  C    Isotropic =   137.5130   Anisotropy =    66.8421

     12  O    Isotropic =   277.0076   Anisotropy =    33.2989

     13  C    Isotropic =   181.6046   Anisotropy =    12.3661

     14  O    Isotropic =   -38.0350   Anisotropy =   560.1137

     15  C    Isotropic =   181.4102   Anisotropy =    26.4125

     16  H    Isotropic =    23.8517   Anisotropy =     8.0383

     17  H    Isotropic =    23.7238   Anisotropy =     5.0210

     18  H    Isotropic =    23.8063   Anisotropy =     4.7874

     19  H    Isotropic =    23.3482   Anisotropy =     9.8255

     20  H    Isotropic =    23.7882   Anisotropy =     4.1035

     21  H    Isotropic =    26.9822   Anisotropy =     5.3505

     22  H    Isotropic =    28.6887   Anisotropy =     4.2895

     23  H    Isotropic =    27.6198   Anisotropy =     7.5749

     24  H    Isotropic =    26.7142   Anisotropy =     6.1611

     25  H    Isotropic =    27.8978   Anisotropy =    20.9709

     26  H    Isotropic =    30.7225   Anisotropy =    10.4337

     27  H    Isotropic =    31.6323   Anisotropy =     6.6111

     28  H    Isotropic =    30.7044   Anisotropy =     7.8733

     29  H    Isotropic =    30.3848   Anisotropy =     8.4383

     30  H    Isotropic =    30.5564   Anisotropy =    11.5527

     31  H    Isotropic =    30.2309   Anisotropy =     6.3583

 The electronic state is 1-A.
 Alpha  occ. eigenvalues --  -19.33699 -19.28138 -19.27595 -10.44461 -10.36384
 Alpha  occ. eigenvalues --  -10.35456 -10.32101 -10.31550 -10.30676 -10.30607
 Alpha  occ. eigenvalues --  -10.30576 -10.30538 -10.30467 -10.28916 -10.28812
 Alpha  occ. eigenvalues --   -1.21703  -1.13217  -1.12412  -0.96165  -0.91364
 Alpha  occ. eigenvalues --   -0.87159  -0.85124  -0.84643  -0.77812  -0.76579
 Alpha  occ. eigenvalues --   -0.71435  -0.70169  -0.67103  -0.65111  -0.61942
 Alpha  occ. eigenvalues --   -0.60521  -0.59995  -0.58239  -0.55926  -0.54652
 Alpha  occ. eigenvalues --   -0.53501  -0.53179  -0.51328  -0.50993  -0.50182
 Alpha  occ. eigenvalues --   -0.49510  -0.47990  -0.47152  -0.46512  -0.45707
 Alpha  occ. eigenvalues --   -0.44426  -0.43802  -0.43225  -0.42493  -0.42070
 Alpha  occ. eigenvalues --   -0.41016  -0.39319  -0.37157  -0.36243  -0.33228
 Alpha  occ. eigenvalues --   -0.32566
 Alpha virt. eigenvalues --    0.04616   0.05450   0.06832   0.06975   0.07748
 Alpha virt. eigenvalues --    0.08089   0.08613   0.09257   0.09855   0.10373
 Alpha virt. eigenvalues --    0.10808   0.10915   0.11869   0.12185   0.12760

 Mulliken atomic charges:
              1
     1  C   -0.431406
     2  C   -0.195618
     3  C   -0.191944
     4  C    0.038425
     5  C    0.063093
     6  C   -0.169313
     7  C    0.168274
     8  C    0.135864
     9  C   -0.069608
    10  O   -0.312892
    11  C   -0.028067
    12  O   -0.571929
    13  C   -0.576601
    14  O   -0.474283
    15  C   -0.510506
    16  H    0.177485
    17  H    0.184866
    18  H    0.184349
    19  H    0.181394
    20  H    0.182342
    21  H    0.160081
    22  H    0.214645
    23  H    0.176830
    24  H    0.182891
    25  H    0.407671
    26  H    0.174125
    27  H    0.180266
    28  H    0.184444
    29  H    0.175171
    30  H    0.179682
    31  H    0.180270
 Sum of Mulliken atomic charges =   0.00000

 Dipole moment (field-independent basis, Debye):
    X=             -1.5253    Y=             -0.3543    Z=              0.6847  Tot=              1.7091
 Quadrupole moment (field-independent basis, Debye-Ang):
   XX=            -73.3449   YY=            -98.5381   ZZ=            -86.0712
   XY=             11.8290   XZ=              2.5642   YZ=             -3.2350

 Normal termination of Gaussian 09 at Tue May 17 15:38:30 2022.
