 Gaussian 09, Revision C.01,

 ------------------------------------------------
 # mPW1PW91/6-31+G** scrf=(PCM,solvent=water) nmr
 ------------------------------------------------

 99/9=1/99;
 -------
 comment
 -------
 Charge =  0 Multiplicity = 1

 SCF Done:  E(RmPW1PW91) =  -1002.31606473     A.U. after   14 cycles

      1  C    Isotropic =   122.6165   Anisotropy =    49.3672

      2  C    Isotropic =   159.0621   Anisotropy =    23.9667

      3  H    Isotropic =    29.3699   Anisotropy =     6.5596

      4  H    Isotropic =    30.2208   Anisotropy =     8.9951

      5  C    Isotropic =   166.5300   Anisotropy =    25.2967

      6  H    Isotropic =    30.2644   Anisotropy =     9.8537

      7  C    Isotropic =   151.8892   Anisotropy =    31.9747

      8  H    Isotropic =    28.2021   Anisotropy =     4.1022

      9  C    Isotropic =   156.2112   Anisotropy =    14.5338

     10  H    Isotropic =    27.3879   Anisotropy =     6.6695

     11  C    Isotropic =   115.0256   Anisotropy =    35.3872

     12  H    Isotropic =    27.5105   Anisotropy =     3.6727

     13  C    Isotropic =    87.6998   Anisotropy =   121.1099

     14  C    Isotropic =    49.5748   Anisotropy =   189.4427

     15  C    Isotropic =    40.7879   Anisotropy =   129.9581

     16  C    Isotropic =    44.7086   Anisotropy =   124.3787

     17  C    Isotropic =    92.0946   Anisotropy =    96.9771

     18  C    Isotropic =    87.8583   Anisotropy =   108.7798

     19  H    Isotropic =    25.2826   Anisotropy =     7.0197

     20  H    Isotropic =    24.9680   Anisotropy =     7.7885

     21  O    Isotropic =   227.5773   Anisotropy =    40.4725

     22  H    Isotropic =    26.6443   Anisotropy =    15.4178

     23  O    Isotropic =   217.0370   Anisotropy =    76.6279

     24  H    Isotropic =    21.6367   Anisotropy =    28.4131

     25  O    Isotropic =   289.2074   Anisotropy =    44.2447

     26  H    Isotropic =    28.4467   Anisotropy =    19.2741

     27  C    Isotropic =   167.0902   Anisotropy =    46.1028

     28  H    Isotropic =    30.5148   Anisotropy =     9.4265

     29  H    Isotropic =    30.4497   Anisotropy =     9.3688

     30  H    Isotropic =    30.1299   Anisotropy =     8.8967

     31  O    Isotropic =   261.6984   Anisotropy =    97.5500

     32  H    Isotropic =    30.7095   Anisotropy =    17.7163

     33  H    Isotropic =    29.3349   Anisotropy =     6.2804

     34  C    Isotropic =    44.4969   Anisotropy =   181.6945

     35  C    Isotropic =    86.9129   Anisotropy =    97.7771

     36  H    Isotropic =    26.8077   Anisotropy =     6.7791

     37  H    Isotropic =    26.5700   Anisotropy =     7.4271

     38  C    Isotropic =   178.0316   Anisotropy =    28.0824

     39  H    Isotropic =    29.7697   Anisotropy =     8.3075

     40  H    Isotropic =    30.1425   Anisotropy =     8.7096

     41  H    Isotropic =    29.8113   Anisotropy =     6.2868

     42  C    Isotropic =   164.8827   Anisotropy =    27.2806

     43  H    Isotropic =    29.1540   Anisotropy =     7.1556

     44  H    Isotropic =    29.1937   Anisotropy =     7.3340

     45  C    Isotropic =   178.2411   Anisotropy =    31.8860

     46  H    Isotropic =    30.2435   Anisotropy =    12.0636

     47  H    Isotropic =    30.5820   Anisotropy =     7.3410

     48  H    Isotropic =    30.5872   Anisotropy =     7.4857

 Normal termination of Gaussian 09 at Fri Dec 23 14:21:25 2022.
 Gaussian 09:  EM64L-G09RevC.01 23-Sep-2011

 ----------------------------------------------------------------------
 # B3LYP/6-31+G** geom=allcheck test scrf=(pcm,solvent=water,smd,dovacu
 um)
 ----------------------------------------------------------------------

 Structure from the checkpoint file:  01_RRSS_THC_002_optB_NMR.chk
 -------
 comment
 -------
 Charge =  0 Multiplicity = 1

                         Standard orientation:
 ---------------------------------------------------------------------
 Center     Atomic      Atomic             Coordinates (Angstroms)
 Number     Number       Type             X           Y           Z
 ---------------------------------------------------------------------
      1          6           0       -3.044782   -1.235172    0.323085
      2          6           0       -3.666966   -0.132040   -0.550652
      3          1           0       -3.604555   -0.405870   -1.611273
      4          1           0       -4.731625   -0.018859   -0.310250
      5          6           0       -2.988678    1.223100   -0.341587
      6          1           0       -3.444689    1.956726   -1.018403
      7          6           0       -1.466084    1.159724   -0.586439
      8          1           0       -1.347086    0.878226   -1.640871
      9          6           0       -0.821509    0.045114    0.295817
     10          1           0       -1.050323    0.323266    1.332371
     11          6           0       -1.514188   -1.329111    0.072500
     12          1           0       -1.067994   -2.057123    0.763249
     13          6           0        0.703593   -0.063016    0.171943
     14          6           0        3.550117   -0.105767    0.017439
     15          6           0        1.374415   -0.252537   -1.047161
     16          6           0        1.509168    0.058662    1.318447
     17          6           0        2.907193    0.037516    1.249932
     18          6           0        2.768918   -0.258579   -1.130178
     19          1           0        3.504526    0.135386    2.151933
     20          1           0        3.237689   -0.397355   -2.101586
     21          8           0        0.912785    0.197352    2.543976
     22          1           0        1.601027    0.317291    3.217579
     23          8           0        0.722913   -0.467715   -2.230686
     24          1           0       -0.131834   -0.897226   -2.010238
     25          8           0       -1.274543   -1.794552   -1.269153
     26          1           0       -1.360534   -2.766784   -1.240283
     27          6           0       -3.742171   -2.572395    0.046550
     28          1           0       -4.803446   -2.521221    0.316400
     29          1           0       -3.305643   -3.369139    0.659449
     30          1           0       -3.674044   -2.865689   -1.005646
     31          8           0       -3.269171   -0.923189    1.702936
     32          1           0       -4.225052   -0.797779    1.834674
     33          1           0       -3.200638    1.565929    0.678525
     34          6           0       -0.838411    2.544258   -0.403442
     35          6           0       -0.201084    3.150462   -1.420612
     36          1           0        0.259402    4.126519   -1.306064
     37          1           0       -0.102440    2.675005   -2.392516
     38          6           0       -0.934696    3.209542    0.943277
     39          1           0       -1.975650    3.435500    1.191930
     40          1           0       -0.383438    4.156103    0.969480
     41          1           0       -0.517392    2.573657    1.728246
     42          6           0        5.053271   -0.135626   -0.070588
     43          1           0        5.375594    0.288175   -1.029547
     44          1           0        5.480905    0.511225    0.705156
     45          6           0        5.601102   -1.546826    0.077557
     46          1           0        6.693535   -1.537681    0.009667
     47          1           0        5.217765   -2.206422   -0.708366
     48          1           0        5.324844   -1.980894    1.044486
 ---------------------------------------------------------------------

 SCF Done:  E(RB3LYP) =  -1002.55773747     A.U. after   14 cycles

 The electronic state is 1-A.
 Alpha  occ. eigenvalues --  -19.18668 -19.17965 -19.16677 -19.15961 -10.25376
 Alpha  occ. eigenvalues --  -10.24819 -10.24660 -10.24432 -10.19915 -10.19677
 Alpha  occ. eigenvalues --  -10.19641 -10.19295 -10.18940 -10.18071 -10.17852
 Alpha  occ. eigenvalues --  -10.17460 -10.17447 -10.17404 -10.17209 -10.17072
 Alpha  occ. eigenvalues --  -10.16957 -10.16926  -1.06475  -1.05873  -1.04042
 Alpha  occ. eigenvalues --   -1.02803  -0.85551  -0.83488  -0.79151  -0.78788
 Alpha  occ. eigenvalues --   -0.75467  -0.74136  -0.73134  -0.71127  -0.68258
 Alpha  occ. eigenvalues --   -0.67441  -0.64384  -0.62054  -0.60732  -0.59832
 Alpha  occ. eigenvalues --   -0.58712  -0.57187  -0.54206  -0.52909  -0.51254
 Alpha  occ. eigenvalues --   -0.50257  -0.49105  -0.48373  -0.47484  -0.46956
 Alpha  occ. eigenvalues --   -0.45393  -0.44522  -0.43980  -0.43525  -0.42798
 Alpha  occ. eigenvalues --   -0.42078  -0.41541  -0.41294  -0.40386  -0.39925
 Alpha  occ. eigenvalues --   -0.39616  -0.39294  -0.38503  -0.37666  -0.37566
 Alpha  occ. eigenvalues --   -0.37250  -0.36417  -0.36146  -0.35750  -0.35288
 Alpha  occ. eigenvalues --   -0.34378  -0.33847  -0.33820  -0.33084  -0.32440
 Alpha  occ. eigenvalues --   -0.31638  -0.30925  -0.29813  -0.28389  -0.27505
 Alpha  occ. eigenvalues --   -0.24592  -0.22775  -0.21822
 Alpha virt. eigenvalues --   -0.00667   0.00126   0.00418   0.00625   0.01322
 Alpha virt. eigenvalues --    0.01735   0.02168   0.02622   0.03409   0.03666
 Alpha virt. eigenvalues --    0.04084   0.04320   0.04525   0.04986   0.05401

 Mulliken atomic charges:
              1
     1  C    0.270709
     2  C   -0.304386
     3  H    0.162205
     4  H    0.155999
     5  C   -0.581287
     6  H    0.150154
     7  C    0.019303
     8  H    0.141260
     9  C   -0.153809
    10  H    0.173176
    11  C   -0.310276
    12  H    0.157885
    13  C    0.361971
    14  C    0.014127
    15  C   -1.303611
    16  C    0.541070
    17  C   -0.101858
    18  C    0.344564
    19  H    0.148037
    20  H    0.146324
    21  O   -0.602208
    22  H    0.449070
    23  O   -0.623899
    24  H    0.474460
    25  O   -0.663804
    26  H    0.445397
    27  C   -0.361373
    28  H    0.165076
    29  H    0.163199
    30  H    0.170211
    31  O   -0.616398
    32  H    0.412497
    33  H    0.155112
    34  C    0.666015
    35  C   -0.532644
    36  H    0.145062
    37  H    0.141081
    38  C   -0.637223
    39  H    0.172382
    40  H    0.156781
    41  H    0.171430
    42  C   -0.059571
    43  H    0.151688
    44  H    0.151252
    45  C   -0.591833
    46  H    0.151868
    47  H    0.157236
    48  H    0.157582
 Sum of Mulliken atomic charges =   0.00000

 Dipole moment (field-independent basis, Debye):
    X=             -2.7099    Y=             -2.7763    Z=              3.0205  Tot=              4.9168
 Quadrupole moment (field-independent basis, Debye-Ang):
   XX=           -106.0204   YY=           -128.6911   ZZ=           -138.1383
   XY=              6.7642   XZ=              9.9388   YZ=              6.5894

 Normal termination of Gaussian 09 at Fri Dec 23 14:39:24 2022.
