 Gaussian 09, Revision C.01,

 ------------------------------------------------
 # mPW1PW91/6-31+G** scrf=(PCM,solvent=water) nmr
 ------------------------------------------------

 99/9=1/99;
 -------
 comment
 -------
 Charge =  0 Multiplicity = 1

 SCF Done:  E(RmPW1PW91) =  -1002.30387461     A.U. after   14 cycles

      1  C    Isotropic =   121.0637   Anisotropy =    46.3541

      2  C    Isotropic =   159.8406   Anisotropy =    25.5657

      3  H    Isotropic =    29.9378   Anisotropy =     9.3756

      4  H    Isotropic =    29.4294   Anisotropy =     6.4295

      5  C    Isotropic =   166.8203   Anisotropy =    21.7215

      6  H    Isotropic =    29.3779   Anisotropy =     8.2549

      7  C    Isotropic =   149.8500   Anisotropy =    21.0851

      8  H    Isotropic =    28.2736   Anisotropy =     5.7830

      9  C    Isotropic =   147.8295   Anisotropy =    29.1987

     10  H    Isotropic =    28.2033   Anisotropy =     6.1886

     11  C    Isotropic =   119.3210   Anisotropy =    31.4562

     12  H    Isotropic =    26.3821   Anisotropy =     3.2277

     13  C    Isotropic =    90.0610   Anisotropy =   120.5761

     14  C    Isotropic =    49.8610   Anisotropy =   190.7281

     15  C    Isotropic =    43.2383   Anisotropy =   124.6875

     16  C    Isotropic =    43.4911   Anisotropy =   120.2228

     17  C    Isotropic =    89.5110   Anisotropy =    99.3559

     18  C    Isotropic =    90.6096   Anisotropy =    99.4966

     19  H    Isotropic =    25.1817   Anisotropy =     7.4782

     20  H    Isotropic =    25.1664   Anisotropy =     7.1067

     21  O    Isotropic =   230.7151   Anisotropy =    53.5262

     22  H    Isotropic =    26.4889   Anisotropy =    15.5565

     23  O    Isotropic =   225.3648   Anisotropy =    53.2803

     24  H    Isotropic =    26.5650   Anisotropy =    15.6513

     25  O    Isotropic =   295.5093   Anisotropy =    31.1567

     26  H    Isotropic =    29.4727   Anisotropy =    18.3359

     27  C    Isotropic =   174.9996   Anisotropy =    32.1501

     28  H    Isotropic =    30.7474   Anisotropy =    10.0151

     29  H    Isotropic =    30.1898   Anisotropy =     8.0925

     30  H    Isotropic =    29.8910   Anisotropy =     7.7916

     31  O    Isotropic =   257.8552   Anisotropy =    80.3695

     32  H    Isotropic =    28.4696   Anisotropy =    14.4138

     33  H    Isotropic =    29.8298   Anisotropy =     9.4963

     34  C    Isotropic =    43.9377   Anisotropy =   180.2789

     35  C    Isotropic =    84.4743   Anisotropy =    98.2515

     36  H    Isotropic =    26.7260   Anisotropy =     5.7945

     37  H    Isotropic =    27.1851   Anisotropy =     7.9199

     38  C    Isotropic =   170.6626   Anisotropy =    26.5090

     39  H    Isotropic =    29.5362   Anisotropy =     7.4783

     40  H    Isotropic =    29.7175   Anisotropy =     8.2854

     41  H    Isotropic =    29.5319   Anisotropy =     3.5262

     42  C    Isotropic =   163.9818   Anisotropy =    30.1202

     43  H    Isotropic =    29.1963   Anisotropy =     7.3723

     44  H    Isotropic =    29.2861   Anisotropy =     7.7311

     45  C    Isotropic =   177.2109   Anisotropy =    30.2665

     46  H    Isotropic =    30.2535   Anisotropy =    12.1100

     47  H    Isotropic =    30.6500   Anisotropy =     7.1327

     48  H    Isotropic =    30.6243   Anisotropy =     7.2810

 Normal termination of Gaussian 09 at Fri Dec 23 16:59:59 2022.
 Gaussian 09:  EM64L-G09RevC.01 23-Sep-2011

 ----------------------------------------------------------------------
 # B3LYP/6-31+G** geom=allcheck test scrf=(pcm,solvent=water,smd,dovacu
 um)
 ----------------------------------------------------------------------

 Structure from the checkpoint file:  02_RSSS_THC_003_optB_NMR.chk
 -------
 comment
 -------
 Charge =  0 Multiplicity = 1

                         Standard orientation:
 ---------------------------------------------------------------------
 Center     Atomic      Atomic             Coordinates (Angstroms)
 Number     Number       Type             X           Y           Z
 ---------------------------------------------------------------------
      1          6           0        3.262087   -0.735694   -0.067980
      2          6           0        3.619076    0.735503    0.155286
      3          1           0        4.647365    0.819234    0.530835
      4          1           0        3.638933    1.252102   -0.810496
      5          6           0        2.668851    1.444633    1.118903
      6          1           0        2.852397    1.054612    2.128781
      7          6           0        1.165422    1.268371    0.803782
      8          1           0        0.670391    1.498642    1.760432
      9          6           0        0.804860   -0.223700    0.492274
     10          1           0        0.994050   -0.787023    1.417303
     11          6           0        1.784637   -0.862895   -0.520633
     12          1           0        1.709556   -0.402843   -1.508417
     13          6           0       -0.701190   -0.415070    0.257479
     14          6           0       -3.521582   -0.695811   -0.038901
     15          6           0       -1.565777   -0.454863    1.369169
     16          6           0       -1.299447   -0.510958   -1.006214
     17          6           0       -2.684832   -0.648835   -1.157996
     18          6           0       -2.950298   -0.592128    1.231372
     19          1           0       -3.122746   -0.726379   -2.149904
     20          1           0       -3.591754   -0.614450    2.108012
     21          8           0       -0.526959   -0.486398   -2.132195
     22          1           0       -1.098613   -0.334123   -2.903480
     23          8           0       -1.034182   -0.349173    2.628251
     24          1           0       -1.747419   -0.433195    3.281508
     25          8           0        1.505650   -2.261496   -0.718834
     26          1           0        0.614978   -2.287993   -1.117678
     27          6           0        3.610022   -1.590782    1.159297
     28          1           0        4.679646   -1.512325    1.387907
     29          1           0        3.422016   -2.653362    0.969183
     30          1           0        3.053879   -1.299363    2.053818
     31          8           0        4.090115   -1.227348   -1.138626
     32          1           0        3.685471   -2.081382   -1.392062
     33          1           0        2.927422    2.509999    1.165684
     34          6           0        0.631046    2.317759   -0.183044
     35          6           0       -0.459780    3.043682    0.127657
     36          1           0       -0.855798    3.799064   -0.543819
     37          1           0       -0.995234    2.894550    1.060831
     38          6           0        1.334151    2.567147   -1.487260
     39          1           0        2.320567    3.006962   -1.315774
     40          1           0        0.780145    3.270009   -2.120150
     41          1           0        1.445218    1.649093   -2.065588
     42          6           0       -5.014271   -0.824687   -0.201304
     43          1           0       -5.238349   -1.425251   -1.091336
     44          1           0       -5.432126   -1.376792    0.649364
     45          6           0       -5.689384    0.533646   -0.314123
     46          1           0       -6.770710    0.410253   -0.430713
     47          1           0       -5.316309    1.092199   -1.179303
     48          1           0       -5.511517    1.141188    0.579723
 ---------------------------------------------------------------------

 SCF Done:  E(RB3LYP) =  -1002.54667506     A.U. after   14 cycles

 The electronic state is 1-A.
 Alpha  occ. eigenvalues --  -19.18821 -19.18781 -19.16341 -19.15737 -10.25585
 Alpha  occ. eigenvalues --  -10.25533 -10.24334 -10.23417 -10.19909 -10.19885
 Alpha  occ. eigenvalues --  -10.19678 -10.19616 -10.19203 -10.18174 -10.18049
 Alpha  occ. eigenvalues --  -10.17989 -10.17847 -10.17514 -10.17118 -10.17078
 Alpha  occ. eigenvalues --  -10.16892 -10.16773  -1.06891  -1.06520  -1.03918
 Alpha  occ. eigenvalues --   -1.01551  -0.85823  -0.83650  -0.79259  -0.78907
 Alpha  occ. eigenvalues --   -0.75249  -0.73407  -0.73252  -0.71208  -0.68761
 Alpha  occ. eigenvalues --   -0.67254  -0.64304  -0.63748  -0.61123  -0.60297
 Alpha  occ. eigenvalues --   -0.57448  -0.55364  -0.54857  -0.52665  -0.51179
 Alpha  occ. eigenvalues --   -0.50644  -0.50204  -0.47889  -0.46847  -0.46275
 Alpha  occ. eigenvalues --   -0.45022  -0.44581  -0.44280  -0.43481  -0.42888
 Alpha  occ. eigenvalues --   -0.42583  -0.41643  -0.41108  -0.40457  -0.39810
 Alpha  occ. eigenvalues --   -0.39453  -0.38938  -0.38282  -0.38011  -0.37959
 Alpha  occ. eigenvalues --   -0.37482  -0.36871  -0.36580  -0.35871  -0.35192
 Alpha  occ. eigenvalues --   -0.34531  -0.33800  -0.33140  -0.33053  -0.32174
 Alpha  occ. eigenvalues --   -0.30823  -0.30647  -0.30349  -0.27897  -0.27616
 Alpha  occ. eigenvalues --   -0.24537  -0.23004  -0.22181
 Alpha virt. eigenvalues --   -0.00591  -0.00160   0.00008   0.00741   0.01437
 Alpha virt. eigenvalues --    0.01683   0.01838   0.02743   0.03096   0.03311
 Alpha virt. eigenvalues --    0.04020   0.04603   0.04898   0.05071   0.05222

 Mulliken atomic charges:
              1
     1  C    0.413603
     2  C   -0.327297
     3  H    0.153605
     4  H    0.158722
     5  C   -0.430786
     6  H    0.162667
     7  C   -0.105036
     8  H    0.145824
     9  C    0.489738
    10  H    0.160361
    11  C   -0.438601
    12  H    0.158923
    13  C    0.500243
    14  C    0.021577
    15  C    0.318912
    16  C   -0.537519
    17  C   -0.847159
    18  C   -0.143866
    19  H    0.149719
    20  H    0.150966
    21  O   -0.615483
    22  H    0.455234
    23  O   -0.600154
    24  H    0.448832
    25  O   -0.649593
    26  H    0.422419
    27  C   -0.330749
    28  H    0.163749
    29  H    0.159612
    30  H    0.168446
    31  O   -0.572884
    32  H    0.396066
    33  H    0.155046
    34  C    0.528218
    35  C   -0.610423
    36  H    0.146047
    37  H    0.141474
    38  C   -0.619483
    39  H    0.173872
    40  H    0.153257
    41  H    0.170078
    42  C   -0.001952
    43  H    0.152296
    44  H    0.152200
    45  C   -0.610462
    46  H    0.152741
    47  H    0.158459
    48  H    0.158542
 Sum of Mulliken atomic charges =   0.00000

 Dipole moment (field-independent basis, Debye):
    X=             -7.0109    Y=              1.0518    Z=              0.4096  Tot=              7.1012
 Quadrupole moment (field-independent basis, Debye-Ang):
   XX=           -135.0272   YY=           -141.7703   ZZ=           -118.2703
   XY=              9.6515   XZ=              6.2004   YZ=             -1.2195

 Normal termination of Gaussian 09 at Fri Dec 23 18:24:21 2022.
