 Gaussian 09, Revision C.01,

 ------------------------------------------------
 # mPW1PW91/6-31+G** scrf=(PCM,solvent=water) nmr
 ------------------------------------------------

 99/9=1/99;
 -------
 comment
 -------
 Charge =  0 Multiplicity = 1

 SCF Done:  E(RmPW1PW91) =  -1002.30274115     A.U. after   14 cycles

      1  C    Isotropic =   120.9460   Anisotropy =    45.9187

      2  C    Isotropic =   160.9874   Anisotropy =    28.4410

      3  H    Isotropic =    29.9730   Anisotropy =     9.4941

      4  H    Isotropic =    29.4707   Anisotropy =     6.5123

      5  C    Isotropic =   165.4698   Anisotropy =    22.4241

      6  H    Isotropic =    29.5431   Anisotropy =     8.0824

      7  C    Isotropic =   153.0376   Anisotropy =    18.0429

      8  H    Isotropic =    28.4201   Anisotropy =     5.9224

      9  C    Isotropic =   148.6107   Anisotropy =    24.9074

     10  H    Isotropic =    28.3379   Anisotropy =     5.8816

     11  C    Isotropic =   119.7264   Anisotropy =    30.8003

     12  H    Isotropic =    26.2895   Anisotropy =     2.8196

     13  C    Isotropic =    90.9065   Anisotropy =   118.9464

     14  C    Isotropic =    49.5161   Anisotropy =   190.6696

     15  C    Isotropic =    42.1331   Anisotropy =   127.0995

     16  C    Isotropic =    44.0165   Anisotropy =   119.5337

     17  C    Isotropic =    89.4795   Anisotropy =    97.8688

     18  C    Isotropic =    90.0977   Anisotropy =   100.5692

     19  H    Isotropic =    25.1149   Anisotropy =     7.7622

     20  H    Isotropic =    24.9734   Anisotropy =     7.2204

     21  O    Isotropic =   230.0373   Anisotropy =    52.2357

     22  H    Isotropic =    26.6056   Anisotropy =    15.5487

     23  O    Isotropic =   225.0762   Anisotropy =    46.6179

     24  H    Isotropic =    26.4241   Anisotropy =    15.0665

     25  O    Isotropic =   298.7438   Anisotropy =    39.7427

     26  H    Isotropic =    29.1680   Anisotropy =    19.2740

     27  C    Isotropic =   174.9247   Anisotropy =    32.4262

     28  H    Isotropic =    30.7733   Anisotropy =     9.8873

     29  H    Isotropic =    30.1842   Anisotropy =     8.0038

     30  H    Isotropic =    29.9547   Anisotropy =     7.7534

     31  O    Isotropic =   257.4816   Anisotropy =    79.9671

     32  H    Isotropic =    28.4030   Anisotropy =    14.4238

     33  H    Isotropic =    29.9899   Anisotropy =     9.5366

     34  C    Isotropic =    41.7976   Anisotropy =   182.1338

     35  C    Isotropic =    85.9120   Anisotropy =   113.7335

     36  H    Isotropic =    26.2435   Anisotropy =     5.0944

     37  H    Isotropic =    26.0769   Anisotropy =     6.0621

     38  C    Isotropic =   166.8419   Anisotropy =    42.9639

     39  H    Isotropic =    30.4342   Anisotropy =     5.9783

     40  H    Isotropic =    30.1761   Anisotropy =     8.7077

     41  H    Isotropic =    29.9060   Anisotropy =     8.4257

     42  C    Isotropic =   164.6771   Anisotropy =    28.3516

     43  H    Isotropic =    29.1593   Anisotropy =     7.3301

     44  H    Isotropic =    29.2093   Anisotropy =     7.1964

     45  C    Isotropic =   177.3875   Anisotropy =    31.2574

     46  H    Isotropic =    30.2811   Anisotropy =    12.0626

     47  H    Isotropic =    30.5824   Anisotropy =     7.6077

     48  H    Isotropic =    30.6502   Anisotropy =     7.3129

 Normal termination of Gaussian 09 at Fri Dec 23 16:59:43 2022.
 Gaussian 09:  EM64L-G09RevC.01 23-Sep-2011

 ----------------------------------------------------------------------
 # B3LYP/6-31+G** geom=allcheck test scrf=(pcm,solvent=water,smd,dovacu
 um)
 ----------------------------------------------------------------------

 Structure from the checkpoint file:  02_RSSS_THC_002_optB_NMR.chk
 -------
 comment
 -------
 Charge =  0 Multiplicity = 1

                         Standard orientation:
 ---------------------------------------------------------------------
 Center     Atomic      Atomic             Coordinates (Angstroms)
 Number     Number       Type             X           Y           Z
 ---------------------------------------------------------------------
      1          6           0        3.161154   -1.024059    0.105174
      2          6           0        3.718664    0.402107    0.090916
      3          1           0        4.737935    0.409553    0.499227
      4          1           0        3.841021    0.741331   -0.943575
      5          6           0        2.854730    1.389670    0.871139
      6          1           0        2.962320    1.168617    1.941274
      7          6           0        1.348625    1.357222    0.524830
      8          1           0        0.870199    1.848170    1.385670
      9          6           0        0.788039   -0.103446    0.492560
     10          1           0        0.894390   -0.505089    1.510519
     11          6           0        1.681470   -1.035014   -0.362483
     12          1           0        1.672958   -0.750098   -1.417909
     13          6           0       -0.729912   -0.126393    0.255060
     14          6           0       -3.561809   -0.046014   -0.064451
     15          6           0       -1.590491    0.210618    1.318915
     16          6           0       -1.338840   -0.428518   -0.970302
     17          6           0       -2.729550   -0.392843   -1.132782
     18          6           0       -2.980278    0.249472    1.170394
     19          1           0       -3.175674   -0.647750   -2.090820
     20          1           0       -3.617279    0.510365    2.011029
     21          8           0       -0.576939   -0.797013   -2.042325
     22          1           0       -1.107114   -0.700948   -2.851570
     23          8           0       -1.048189    0.513479    2.540980
     24          1           0       -1.765684    0.674830    3.174881
     25          8           0        1.219053   -2.397996   -0.321912
     26          1           0        0.345718   -2.377464   -0.759231
     27          6           0        3.379716   -1.693395    1.470617
     28          1           0        4.448303   -1.721110    1.715350
     29          1           0        3.048895   -2.737877    1.459040
     30          1           0        2.862528   -1.178973    2.284484
     31          8           0        3.922494   -1.799215   -0.840058
     32          1           0        3.409001   -2.624305   -0.953350
     33          1           0        3.254507    2.403100    0.738848
     34          6           0        1.000820    2.244221   -0.678509
     35          6           0        1.465034    2.082492   -1.928887
     36          1           0        1.175715    2.757775   -2.729137
     37          1           0        2.136909    1.282375   -2.211230
     38          6           0        0.063999    3.388003   -0.374603
     39          1           0       -0.890208    3.012376    0.007257
     40          1           0       -0.151755    3.994787   -1.260503
     41          1           0        0.506237    4.048610    0.378421
     42          6           0       -5.059285   -0.026537   -0.232612
     43          1           0       -5.494221    0.739143    0.421329
     44          1           0       -5.311672    0.271999   -1.257428
     45          6           0       -5.680833   -1.379918    0.076438
     46          1           0       -6.766756   -1.336175   -0.053770
     47          1           0       -5.474760   -1.685594    1.107834
     48          1           0       -5.290369   -2.157690   -0.588612
 ---------------------------------------------------------------------

 SCF Done:  E(RB3LYP) =  -1002.54566996     A.U. after   14 cycles

 The electronic state is 1-A.
 Alpha  occ. eigenvalues --  -19.18838 -19.18794 -19.16269 -19.15734 -10.25626
 Alpha  occ. eigenvalues --  -10.25551 -10.24370 -10.23432 -10.19966 -10.19902
 Alpha  occ. eigenvalues --  -10.19770 -10.19562 -10.19126 -10.18185 -10.18089
 Alpha  occ. eigenvalues --  -10.18013 -10.17851 -10.17565 -10.17216 -10.17125
 Alpha  occ. eigenvalues --  -10.16771 -10.16726  -1.06948  -1.06544  -1.03876
 Alpha  occ. eigenvalues --   -1.01517  -0.85856  -0.83658  -0.79276  -0.78850
 Alpha  occ. eigenvalues --   -0.75245  -0.73402  -0.73270  -0.71224  -0.68334
 Alpha  occ. eigenvalues --   -0.67556  -0.64320  -0.63760  -0.61122  -0.60517
 Alpha  occ. eigenvalues --   -0.57491  -0.55394  -0.54782  -0.52771  -0.51214
 Alpha  occ. eigenvalues --   -0.50531  -0.50126  -0.47882  -0.46900  -0.46318
 Alpha  occ. eigenvalues --   -0.44964  -0.44650  -0.44249  -0.43228  -0.42960
 Alpha  occ. eigenvalues --   -0.42555  -0.41859  -0.41090  -0.40508  -0.39902
 Alpha  occ. eigenvalues --   -0.39390  -0.38739  -0.38629  -0.38118  -0.37873
 Alpha  occ. eigenvalues --   -0.37414  -0.36849  -0.36525  -0.35597  -0.35289
 Alpha  occ. eigenvalues --   -0.34493  -0.34154  -0.33167  -0.33083  -0.32241
 Alpha  occ. eigenvalues --   -0.30949  -0.30493  -0.30108  -0.27906  -0.27548
 Alpha  occ. eigenvalues --   -0.24554  -0.22979  -0.22226
 Alpha virt. eigenvalues --   -0.00661  -0.00093   0.00122   0.00657   0.01404
 Alpha virt. eigenvalues --    0.01790   0.01808   0.02782   0.03190   0.03500
 Alpha virt. eigenvalues --    0.03895   0.04533   0.04748   0.05019   0.05294

 Mulliken atomic charges:
              1
     1  C    0.339372
     2  C   -0.302590
     3  H    0.154801
     4  H    0.157121
     5  C   -0.409847
     6  H    0.159600
     7  C   -0.030910
     8  H    0.145346
     9  C    0.475300
    10  H    0.158460
    11  C   -0.244729
    12  H    0.161945
    13  C    0.543037
    14  C    0.068593
    15  C    0.315941
    16  C   -0.581793
    17  C   -0.904332
    18  C   -0.078372
    19  H    0.149840
    20  H    0.151532
    21  O   -0.600214
    22  H    0.456621
    23  O   -0.605327
    24  H    0.448121
    25  O   -0.654401
    26  H    0.425771
    27  C   -0.322500
    28  H    0.163657
    29  H    0.159883
    30  H    0.168272
    31  O   -0.569991
    32  H    0.395276
    33  H    0.152029
    34  C    0.298062
    35  C   -0.464313
    36  H    0.142628
    37  H    0.146961
    38  C   -0.737611
    39  H    0.173350
    40  H    0.154550
    41  H    0.169152
    42  C   -0.109747
    43  H    0.152256
    44  H    0.151947
    45  C   -0.590650
    46  H    0.152435
    47  H    0.157793
    48  H    0.157671
 Sum of Mulliken atomic charges =   0.00000

 Dipole moment (field-independent basis, Debye):
    X=             -7.6769    Y=              2.6031    Z=              0.8688  Tot=              8.1526
 Quadrupole moment (field-independent basis, Debye-Ang):
   XX=           -134.8392   YY=           -140.0440   ZZ=           -119.9513
   XY=              6.5746   XZ=              6.2575   YZ=              5.2614

 Normal termination of Gaussian 09 at Fri Dec 23 18:23:42 2022.
