 Gaussian 09, Revision C.01,

 ------------------------------------------------
 # mPW1PW91/6-31+G** scrf=(PCM,solvent=water) nmr
 ------------------------------------------------

 99/9=1/99;
 -------
 comment
 -------
 Charge =  0 Multiplicity = 1

 SCF Done:  E(RmPW1PW91) =  -1002.30130430     A.U. after   14 cycles

      1  C    Isotropic =   120.2891   Anisotropy =    45.0228

      2  C    Isotropic =   158.5664   Anisotropy =    33.7433

      3  H    Isotropic =    30.1073   Anisotropy =     9.0017

      4  H    Isotropic =    29.3626   Anisotropy =     6.0442

      5  C    Isotropic =   165.2702   Anisotropy =    22.6127

      6  H    Isotropic =    29.4992   Anisotropy =     7.9483

      7  C    Isotropic =   153.9239   Anisotropy =    20.8082

      8  H    Isotropic =    28.0636   Anisotropy =     6.9142

      9  C    Isotropic =   151.0039   Anisotropy =    22.2360

     10  H    Isotropic =    28.1652   Anisotropy =     5.2472

     11  C    Isotropic =   120.9349   Anisotropy =    41.3740

     12  H    Isotropic =    26.4027   Anisotropy =     2.6334

     13  C    Isotropic =    85.8157   Anisotropy =   122.5770

     14  C    Isotropic =    50.2816   Anisotropy =   189.2553

     15  C    Isotropic =    44.6010   Anisotropy =   122.8544

     16  C    Isotropic =    42.9699   Anisotropy =   123.8346

     17  C    Isotropic =    85.0790   Anisotropy =   110.1933

     18  C    Isotropic =    90.9475   Anisotropy =    98.4546

     19  H    Isotropic =    24.8339   Anisotropy =     7.8528

     20  H    Isotropic =    25.1487   Anisotropy =     7.5500

     21  O    Isotropic =   235.5863   Anisotropy =    61.6746

     22  H    Isotropic =    22.9114   Anisotropy =    26.2888

     23  O    Isotropic =   224.0286   Anisotropy =    46.2434

     24  H    Isotropic =    26.4681   Anisotropy =    15.4796

     25  O    Isotropic =   293.1873   Anisotropy =    62.5041

     26  H    Isotropic =    27.6543   Anisotropy =    17.9972

     27  C    Isotropic =   174.7129   Anisotropy =    32.7987

     28  H    Isotropic =    30.9483   Anisotropy =     9.8186

     29  H    Isotropic =    29.8966   Anisotropy =     7.9265

     30  H    Isotropic =    29.7798   Anisotropy =     7.7322

     31  O    Isotropic =   247.8002   Anisotropy =    66.2091

     32  H    Isotropic =    29.9180   Anisotropy =    16.9831

     33  H    Isotropic =    29.9436   Anisotropy =     9.7020

     34  C    Isotropic =    41.8770   Anisotropy =   182.6462

     35  C    Isotropic =    86.9634   Anisotropy =   111.5519

     36  H    Isotropic =    26.3639   Anisotropy =     5.1825

     37  H    Isotropic =    26.2853   Anisotropy =     6.3068

     38  C    Isotropic =   166.4373   Anisotropy =    43.9007

     39  H    Isotropic =    30.3790   Anisotropy =     6.5839

     40  H    Isotropic =    30.1900   Anisotropy =     8.7598

     41  H    Isotropic =    29.8680   Anisotropy =     8.2611

     42  C    Isotropic =   164.8012   Anisotropy =    28.8687

     43  H    Isotropic =    29.2735   Anisotropy =     7.2519

     44  H    Isotropic =    29.2430   Anisotropy =     7.3001

     45  C    Isotropic =   176.9386   Anisotropy =    30.3156

     46  H    Isotropic =    30.2917   Anisotropy =    12.0191

     47  H    Isotropic =    30.6218   Anisotropy =     7.4248

     48  H    Isotropic =    30.5943   Anisotropy =     7.4963

 Normal termination of Gaussian 09 at Fri Dec 23 14:07:40 2022.
 Gaussian 09:  EM64L-G09RevC.01 23-Sep-2011

 ----------------------------------------------------------------------
 # B3LYP/6-31+G** geom=allcheck test scrf=(pcm,solvent=water,smd,dovacu
 um)
 ----------------------------------------------------------------------

 Structure from the checkpoint file:  02_RSSS_THC_008_optB_NMR.chk
 -------
 comment
 -------
 Charge =  0 Multiplicity = 1

                         Standard orientation:
 ---------------------------------------------------------------------
 Center     Atomic      Atomic             Coordinates (Angstroms)
 Number     Number       Type             X           Y           Z
 ---------------------------------------------------------------------
      1          6           0        3.191108   -0.913913    0.207685
      2          6           0        3.699758    0.519308    0.032423
      3          1           0        4.716651    0.608962    0.436500
      4          1           0        3.810597    0.745400   -1.033856
      5          6           0        2.797037    1.551375    0.701112
      6          1           0        2.910910    1.454210    1.788883
      7          6           0        1.292832    1.424107    0.364132
      8          1           0        0.806875    2.003549    1.161068
      9          6           0        0.774713   -0.054623    0.504462
     10          1           0        0.884993   -0.337902    1.561255
     11          6           0        1.715866   -1.018063   -0.258134
     12          1           0        1.682858   -0.818265   -1.333249
     13          6           0       -0.742702   -0.159391    0.272156
     14          6           0       -3.574295   -0.091610   -0.121913
     15          6           0       -1.614929    0.458485    1.193433
     16          6           0       -1.356295   -0.807378   -0.808749
     17          6           0       -2.738194   -0.756485   -1.020414
     18          6           0       -3.001996    0.499218    1.005579
     19          1           0       -3.156084   -1.266277   -1.885754
     20          1           0       -3.643504    0.992350    1.730185
     21          8           0       -0.673925   -1.584684   -1.700396
     22          1           0       -0.070105   -2.132689   -1.152135
     23          8           0       -1.090818    1.034716    2.323221
     24          1           0       -1.821079    1.365314    2.871144
     25          8           0        1.285925   -2.389545   -0.126823
     26          1           0        2.057232   -2.912792   -0.434543
     27          6           0        3.415902   -1.422629    1.639476
     28          1           0        4.482211   -1.392633    1.893532
     29          1           0        3.113394   -2.470894    1.739525
     30          1           0        2.878161   -0.836913    2.389236
     31          8           0        3.953014   -1.786303   -0.649917
     32          1           0        4.895741   -1.654675   -0.443050
     33          1           0        3.157803    2.558726    0.456995
     34          6           0        0.921234    2.154414   -0.934155
     35          6           0        1.379569    1.859843   -2.162300
     36          1           0        1.059142    2.427704   -3.031957
     37          1           0        2.066755    1.050098   -2.365755
     38          6           0       -0.038970    3.307436   -0.762528
     39          1           0       -0.989484    2.960289   -0.347515
     40          1           0       -0.258650    3.810211   -1.710499
     41          1           0        0.386300    4.055064   -0.084791
     42          6           0       -5.063925   -0.061699   -0.339733
     43          1           0       -5.475992    0.872731    0.060424
     44          1           0       -5.279588   -0.051526   -1.415139
     45          6           0       -5.756140   -1.249091    0.311860
     46          1           0       -6.835583   -1.200347    0.137131
     47          1           0       -5.587869   -1.262425    1.394074
     48          1           0       -5.388696   -2.196571   -0.096736
 ---------------------------------------------------------------------

 SCF Done:  E(RB3LYP) =  -1002.54199555     A.U. after   14 cycles

 The electronic state is 1-A.
 Alpha  occ. eigenvalues --  -19.18708 -19.17497 -19.16687 -19.16278 -10.25510
 Alpha  occ. eigenvalues --  -10.24814 -10.24787 -10.24373 -10.20705 -10.19799
 Alpha  occ. eigenvalues --  -10.19694 -10.19619 -10.19319 -10.18084 -10.18027
 Alpha  occ. eigenvalues --  -10.17908 -10.17593 -10.17515 -10.17215 -10.17078
 Alpha  occ. eigenvalues --  -10.17014 -10.16819  -1.06466  -1.05955  -1.04371
 Alpha  occ. eigenvalues --   -1.02185  -0.85670  -0.83812  -0.79110  -0.78986
 Alpha  occ. eigenvalues --   -0.75413  -0.73680  -0.73059  -0.71204  -0.68679
 Alpha  occ. eigenvalues --   -0.67609  -0.64458  -0.62305  -0.61170  -0.60540
 Alpha  occ. eigenvalues --   -0.58709  -0.56716  -0.53737  -0.51807  -0.51151
 Alpha  occ. eigenvalues --   -0.50629  -0.49831  -0.48718  -0.47393  -0.46254
 Alpha  occ. eigenvalues --   -0.45548  -0.44843  -0.43641  -0.43259  -0.42761
 Alpha  occ. eigenvalues --   -0.42503  -0.41766  -0.41579  -0.40536  -0.40364
 Alpha  occ. eigenvalues --   -0.40020  -0.38731  -0.38664  -0.38401  -0.37929
 Alpha  occ. eigenvalues --   -0.37058  -0.36766  -0.36366  -0.35583  -0.35282
 Alpha  occ. eigenvalues --   -0.34476  -0.33993  -0.33215  -0.32982  -0.31887
 Alpha  occ. eigenvalues --   -0.30915  -0.30626  -0.29885  -0.28706  -0.28074
 Alpha  occ. eigenvalues --   -0.24630  -0.22969  -0.22010
 Alpha virt. eigenvalues --   -0.00564   0.00118   0.00317   0.00440   0.01246
 Alpha virt. eigenvalues --    0.01814   0.01925   0.02720   0.03202   0.03481
 Alpha virt. eigenvalues --    0.04305   0.04551   0.04757   0.04802   0.05382

 Mulliken atomic charges:
              1
     1  C    0.215125
     2  C   -0.326014
     3  H    0.157697
     4  H    0.162749
     5  C   -0.410215
     6  H    0.160184
     7  C   -0.022682
     8  H    0.150575
     9  C    0.447458
    10  H    0.165624
    11  C   -0.057108
    12  H    0.165589
    13  C    0.387811
    14  C   -0.010772
    15  C    0.290879
    16  C   -0.255247
    17  C   -0.923040
    18  C   -0.021093
    19  H    0.147919
    20  H    0.151294
    21  O   -0.605540
    22  H    0.444565
    23  O   -0.615269
    24  H    0.447405
    25  O   -0.669648
    26  H    0.431739
    27  C   -0.336344
    28  H    0.165682
    29  H    0.162206
    30  H    0.172306
    31  O   -0.612939
    32  H    0.414204
    33  H    0.152930
    34  C    0.268406
    35  C   -0.536233
    36  H    0.143851
    37  H    0.146563
    38  C   -0.729971
    39  H    0.173651
    40  H    0.153587
    41  H    0.169107
    42  C   -0.099928
    43  H    0.151190
    44  H    0.151938
    45  C   -0.586809
    46  H    0.151791
    47  H    0.157472
    48  H    0.157353
 Sum of Mulliken atomic charges =   0.00000

 Dipole moment (field-independent basis, Debye):
    X=              2.1583    Y=              2.7995    Z=              4.6848  Tot=              5.8688
 Quadrupole moment (field-independent basis, Debye-Ang):
   XX=           -102.3549   YY=           -135.7577   ZZ=           -136.2185
   XY=             -7.7782   XZ=             -1.9999   YZ=              2.2959

 Normal termination of Gaussian 09 at Fri Dec 23 14:18:34 2022.
