 Gaussian 09, Revision C.01,

 ------------------------------------------------
 # mPW1PW91/6-31+G** scrf=(PCM,solvent=water) nmr
 ------------------------------------------------

 99/9=1/99;
 -------
 comment
 -------
 Charge =  0 Multiplicity = 1

 SCF Done:  E(RmPW1PW91) =  -1002.30151577     A.U. after   14 cycles

      1  C    Isotropic =   120.6011   Anisotropy =    44.2360

      2  C    Isotropic =   156.8010   Anisotropy =    29.9625

      3  H    Isotropic =    30.0158   Anisotropy =     8.7919

      4  H    Isotropic =    29.4998   Anisotropy =     5.9788

      5  C    Isotropic =   164.1603   Anisotropy =    26.2349

      6  H    Isotropic =    29.3521   Anisotropy =     7.7910

      7  C    Isotropic =   148.5625   Anisotropy =    26.5377

      8  H    Isotropic =    27.6914   Anisotropy =     6.9717

      9  C    Isotropic =   153.0725   Anisotropy =    25.1108

     10  H    Isotropic =    28.1180   Anisotropy =     4.7109

     11  C    Isotropic =   119.2541   Anisotropy =    39.6370

     12  H    Isotropic =    26.3907   Anisotropy =     3.1800

     13  C    Isotropic =    88.8172   Anisotropy =   115.2358

     14  C    Isotropic =    51.1737   Anisotropy =   189.8504

     15  C    Isotropic =    43.2587   Anisotropy =   124.8934

     16  C    Isotropic =    42.7585   Anisotropy =   123.0309

     17  C    Isotropic =    82.9401   Anisotropy =   110.1153

     18  C    Isotropic =    90.2719   Anisotropy =    97.3828

     19  H    Isotropic =    24.8498   Anisotropy =     7.4723

     20  H    Isotropic =    25.2101   Anisotropy =     7.1172

     21  O    Isotropic =   237.7495   Anisotropy =    58.2177

     22  H    Isotropic =    22.6766   Anisotropy =    26.8693

     23  O    Isotropic =   224.2287   Anisotropy =    47.7261

     24  H    Isotropic =    26.4452   Anisotropy =    15.2871

     25  O    Isotropic =   293.3400   Anisotropy =    63.5592

     26  H    Isotropic =    27.5599   Anisotropy =    17.9034

     27  C    Isotropic =   174.6470   Anisotropy =    31.3106

     28  H    Isotropic =    30.8677   Anisotropy =     9.9009

     29  H    Isotropic =    30.0144   Anisotropy =     7.8776

     30  H    Isotropic =    29.8484   Anisotropy =     7.7491

     31  O    Isotropic =   247.5520   Anisotropy =    68.1118

     32  H    Isotropic =    29.9674   Anisotropy =    16.8987

     33  H    Isotropic =    29.9573   Anisotropy =     9.1312

     34  C    Isotropic =    42.2761   Anisotropy =   184.5643

     35  C    Isotropic =    85.9179   Anisotropy =    94.3963

     36  H    Isotropic =    26.7165   Anisotropy =     6.6774

     37  H    Isotropic =    26.7493   Anisotropy =     7.7354

     38  C    Isotropic =   170.9821   Anisotropy =    26.7867

     39  H    Isotropic =    29.5406   Anisotropy =     6.0225

     40  H    Isotropic =    29.7297   Anisotropy =     8.9232

     41  H    Isotropic =    29.3075   Anisotropy =     5.4619

     42  C    Isotropic =   163.6955   Anisotropy =    29.4480

     43  H    Isotropic =    29.1285   Anisotropy =     7.3220

     44  H    Isotropic =    29.2493   Anisotropy =     7.4500

     45  C    Isotropic =   177.4424   Anisotropy =    30.3980

     46  H    Isotropic =    30.2912   Anisotropy =    12.0784

     47  H    Isotropic =    30.6352   Anisotropy =     7.1345

     48  H    Isotropic =    30.6474   Anisotropy =     7.0458

 Normal termination of Gaussian 09 at Fri Dec 23 14:02:39 2022.
 Gaussian 09:  EM64L-G09RevC.01 23-Sep-2011

 ----------------------------------------------------------------------
 # B3LYP/6-31+G** geom=allcheck test scrf=(pcm,solvent=water,smd,dovacu
 um)
 ----------------------------------------------------------------------

 Structure from the checkpoint file:  02_RSSS_THC_010_optB_NMR.chk
 -------
 comment
 -------
 Charge =  0 Multiplicity = 1

                         Standard orientation:
 ---------------------------------------------------------------------
 Center     Atomic      Atomic             Coordinates (Angstroms)
 Number     Number       Type             X           Y           Z
 ---------------------------------------------------------------------
      1          6           0        3.284889   -0.622034    0.092375
      2          6           0        3.585428    0.848759   -0.197003
      3          1           0        4.616596    1.086494    0.095313
      4          1           0        3.560458    1.024315   -1.277743
      5          6           0        2.625982    1.794344    0.515458
      6          1           0        2.858897    1.772245    1.588425
      7          6           0        1.122960    1.467267    0.347638
      8          1           0        0.663991    1.985437    1.201033
      9          6           0        0.804065   -0.061217    0.554696
     10          1           0        1.019784   -0.294950    1.607637
     11          6           0        1.805430   -0.928863   -0.248170
     12          1           0        1.672686   -0.778469   -1.323872
     13          6           0       -0.702493   -0.359942    0.437608
     14          6           0       -3.541512   -0.658985    0.242391
     15          6           0       -1.585492    0.212298    1.378070
     16          6           0       -1.300094   -1.148660   -0.555919
     17          6           0       -2.688391   -1.274444   -0.674492
     18          6           0       -2.976584    0.079436    1.283005
     19          1           0       -3.094186   -1.879197   -1.482482
     20          1           0       -3.627435    0.550343    2.014024
     21          8           0       -0.586198   -1.893205   -1.451171
     22          1           0        0.121513   -2.323682   -0.921860
     23          8           0       -1.068795    0.910702    2.440324
     24          1           0       -1.802398    1.215208    2.998501
     25          8           0        1.569342   -2.336834   -0.036604
     26          1           0        2.379565   -2.770129   -0.382791
     27          6           0        3.679571   -1.016535    1.522713
     28          1           0        4.748765   -0.837802    1.687839
     29          1           0        3.524019   -2.087348    1.694805
     30          1           0        3.127270   -0.462761    2.286014
     31          8           0        4.083918   -1.441199   -0.783681
     32          1           0        5.015645   -1.185120   -0.660062
     33          1           0        2.831565    2.823556    0.194527
     34          6           0        0.527222    2.145642   -0.895477
     35          6           0       -0.242962    3.241944   -0.759173
     36          1           0       -0.688817    3.737280   -1.616518
     37          1           0       -0.462681    3.668565    0.214791
     38          6           0        0.779384    1.593987   -2.270241
     39          1           0        1.847598    1.516306   -2.478015
     40          1           0        0.356849    2.237969   -3.050300
     41          1           0        0.316638    0.612742   -2.391786
     42          6           0       -5.035512   -0.785272    0.104630
     43          1           0       -5.285807   -1.757577   -0.337005
     44          1           0       -5.500283   -0.775485    1.098077
     45          6           0       -5.619696    0.331437   -0.746968
     46          1           0       -6.704918    0.215572   -0.830385
     47          1           0       -5.198592    0.321780   -1.758059
     48          1           0       -5.416038    1.314018   -0.307894
 ---------------------------------------------------------------------

 SCF Done:  E(RB3LYP) =  -1002.54189826     A.U. after   14 cycles

 The electronic state is 1-A.
 Alpha  occ. eigenvalues --  -19.18719 -19.17502 -19.16598 -19.16308 -10.25525
 Alpha  occ. eigenvalues --  -10.24797 -10.24791 -10.24380 -10.20749 -10.19849
 Alpha  occ. eigenvalues --  -10.19770 -10.19610 -10.19331 -10.18076 -10.18030
 Alpha  occ. eigenvalues --  -10.17882 -10.17577 -10.17507 -10.17086 -10.17075
 Alpha  occ. eigenvalues --  -10.17030 -10.16938  -1.06487  -1.05960  -1.04359
 Alpha  occ. eigenvalues --   -1.02184  -0.85661  -0.83820  -0.79135  -0.79078
 Alpha  occ. eigenvalues --   -0.75418  -0.73737  -0.73045  -0.71201  -0.69102
 Alpha  occ. eigenvalues --   -0.67349  -0.64421  -0.62297  -0.61110  -0.60501
 Alpha  occ. eigenvalues --   -0.58679  -0.56670  -0.53742  -0.51725  -0.51364
 Alpha  occ. eigenvalues --   -0.50649  -0.49843  -0.48791  -0.47482  -0.46202
 Alpha  occ. eigenvalues --   -0.45429  -0.44871  -0.44059  -0.43098  -0.42878
 Alpha  occ. eigenvalues --   -0.42334  -0.42103  -0.41339  -0.40775  -0.40125
 Alpha  occ. eigenvalues --   -0.40001  -0.39045  -0.38559  -0.38248  -0.37673
 Alpha  occ. eigenvalues --   -0.37035  -0.36911  -0.36387  -0.35769  -0.35213
 Alpha  occ. eigenvalues --   -0.34276  -0.33940  -0.33168  -0.32968  -0.31977
 Alpha  occ. eigenvalues --   -0.31201  -0.30466  -0.30055  -0.28726  -0.28154
 Alpha  occ. eigenvalues --   -0.24529  -0.22950  -0.22021
 Alpha virt. eigenvalues --   -0.00580   0.00104   0.00249   0.00389   0.01404
 Alpha virt. eigenvalues --    0.01749   0.01961   0.02836   0.03252   0.03429
 Alpha virt. eigenvalues --    0.04369   0.04568   0.04703   0.05010   0.05290

 Mulliken atomic charges:
              1
     1  C    0.228612
     2  C   -0.352702
     3  H    0.157781
     4  H    0.161429
     5  C   -0.350466
     6  H    0.162294
     7  C   -0.239490
     8  H    0.148107
     9  C    0.440808
    10  H    0.169872
    11  C   -0.196465
    12  H    0.170339
    13  C    0.429373
    14  C   -0.067141
    15  C    0.353791
    16  C   -0.216729
    17  C   -0.841379
    18  C   -0.071654
    19  H    0.147689
    20  H    0.150396
    21  O   -0.621559
    22  H    0.448573
    23  O   -0.605206
    24  H    0.446248
    25  O   -0.674552
    26  H    0.432240
    27  C   -0.329836
    28  H    0.165908
    29  H    0.162702
    30  H    0.172588
    31  O   -0.616295
    32  H    0.415099
    33  H    0.153488
    34  C    0.457482
    35  C   -0.581448
    36  H    0.147113
    37  H    0.141420
    38  C   -0.727281
    39  H    0.169580
    40  H    0.153129
    41  H    0.178600
    42  C   -0.035457
    43  H    0.151776
    44  H    0.150922
    45  C   -0.607695
    46  H    0.152433
    47  H    0.157667
    48  H    0.157897
 Sum of Mulliken atomic charges =   0.00000

 Dipole moment (field-independent basis, Debye):
    X=              2.8612    Y=              2.6284    Z=              3.3638  Tot=              5.1391
 Quadrupole moment (field-independent basis, Debye-Ang):
   XX=           -101.0392   YY=           -141.2732   ZZ=           -133.1928
   XY=             -2.7325   XZ=             -5.0776   YZ=              1.4808

 Normal termination of Gaussian 09 at Fri Dec 23 14:10:18 2022.
