 Gaussian 09, Revision C.01,

 ------------------------------------------------
 # mPW1PW91/6-31+G** scrf=(PCM,solvent=water) nmr
 ------------------------------------------------

 99/9=1/99;
 -------
 comment
 -------
 Charge =  0 Multiplicity = 1

 SCF Done:  E(RmPW1PW91) =  -1002.30416091     A.U. after   14 cycles

      1  C    Isotropic =   121.1842   Anisotropy =    47.3796

      2  C    Isotropic =   161.3835   Anisotropy =    27.0786

      3  H    Isotropic =    30.1309   Anisotropy =     8.5701

      4  H    Isotropic =    29.0701   Anisotropy =     5.9078

      5  C    Isotropic =   163.1212   Anisotropy =    24.8345

      6  H    Isotropic =    29.5040   Anisotropy =     8.4120

      7  C    Isotropic =   153.6214   Anisotropy =    15.8751

      8  H    Isotropic =    28.8688   Anisotropy =     5.4683

      9  C    Isotropic =   156.0075   Anisotropy =    18.2442

     10  H    Isotropic =    27.9756   Anisotropy =     8.1284

     11  C    Isotropic =   118.5161   Anisotropy =    38.2957

     12  H    Isotropic =    27.3796   Anisotropy =     4.6762

     13  C    Isotropic =    88.8418   Anisotropy =   114.4944

     14  C    Isotropic =    49.4149   Anisotropy =   190.3659

     15  C    Isotropic =    43.8860   Anisotropy =   124.5653

     16  C    Isotropic =    40.3148   Anisotropy =   132.5380

     17  C    Isotropic =    88.5375   Anisotropy =   106.5557

     18  C    Isotropic =    93.6795   Anisotropy =    94.7504

     19  H    Isotropic =    24.8350   Anisotropy =     7.7784

     20  H    Isotropic =    25.1844   Anisotropy =     7.0822

     21  O    Isotropic =   209.3817   Anisotropy =    70.4344

     22  H    Isotropic =    20.8853   Anisotropy =    29.6657

     23  O    Isotropic =   226.7553   Anisotropy =    50.8561

     24  H    Isotropic =    26.5138   Anisotropy =    15.1973

     25  O    Isotropic =   288.9454   Anisotropy =    47.9153

     26  H    Isotropic =    27.0604   Anisotropy =    18.2133

     27  C    Isotropic =   170.4182   Anisotropy =    39.7682

     28  H    Isotropic =    30.6133   Anisotropy =    10.2287

     29  H    Isotropic =    30.3344   Anisotropy =     8.7780

     30  H    Isotropic =    29.7994   Anisotropy =     7.5582

     31  O    Isotropic =   247.4959   Anisotropy =    62.0349

     32  H    Isotropic =    29.8177   Anisotropy =    16.9561

     33  H    Isotropic =    29.6611   Anisotropy =     9.1344

     34  C    Isotropic =    41.5135   Anisotropy =   182.2259

     35  C    Isotropic =    82.6792   Anisotropy =   122.3982

     36  H    Isotropic =    26.1666   Anisotropy =     5.7449

     37  H    Isotropic =    25.6772   Anisotropy =     6.2524

     38  C    Isotropic =   165.7887   Anisotropy =    43.7201

     39  H    Isotropic =    30.6925   Anisotropy =     7.3701

     40  H    Isotropic =    30.1910   Anisotropy =     8.3468

     41  H    Isotropic =    29.9741   Anisotropy =     8.6019

     42  C    Isotropic =   164.2984   Anisotropy =    29.0908

     43  H    Isotropic =    29.2699   Anisotropy =     7.2174

     44  H    Isotropic =    29.2183   Anisotropy =     7.0760

     45  C    Isotropic =   177.9935   Anisotropy =    27.8272

     46  H    Isotropic =    30.3369   Anisotropy =    11.9283

     47  H    Isotropic =    30.5848   Anisotropy =     7.6307

     48  H    Isotropic =    30.5992   Anisotropy =     7.3234

 Normal termination of Gaussian 09 at Fri Dec 23 15:05:15 2022.
 Gaussian 09:  EM64L-G09RevC.01 23-Sep-2011

 ----------------------------------------------------------------------
 # B3LYP/6-31+G** geom=allcheck test scrf=(pcm,solvent=water,smd,dovacu
 um)
 ----------------------------------------------------------------------

 Structure from the checkpoint file:  03_RSRS_THC_002_optB_NMR.chk
 -------
 comment
 -------
 Charge =  0 Multiplicity = 1

                         Standard orientation:
 ---------------------------------------------------------------------
 Center     Atomic      Atomic             Coordinates (Angstroms)
 Number     Number       Type             X           Y           Z
 ---------------------------------------------------------------------
      1          6           0        3.020436   -1.271053   -0.239158
      2          6           0        3.688871    0.002921    0.299719
      3          1           0        4.676278   -0.245100    0.711683
      4          1           0        3.910881    0.680663   -0.531088
      5          6           0        2.870844    0.727718    1.369693
      6          1           0        2.913074    0.124885    2.287048
      7          6           0        1.376744    0.968303    1.032092
      8          1           0        0.908364    1.103591    2.020463
      9          6           0        0.732452   -0.321068    0.433572
     10          1           0        0.826488   -1.061968    1.238456
     11          6           0        1.565266   -0.980449   -0.690418
     12          1           0        1.086471   -1.911378   -1.019224
     13          6           0       -0.778390   -0.223351    0.206330
     14          6           0       -3.622112   -0.070470   -0.036416
     15          6           0       -1.643930   -0.566495    1.268224
     16          6           0       -1.392926    0.220198   -0.974129
     17          6           0       -2.786384    0.287875   -1.096013
     18          6           0       -3.037407   -0.502499    1.153900
     19          1           0       -3.211486    0.634306   -2.036037
     20          1           0       -3.674827   -0.784550    1.986921
     21          8           0       -0.724335    0.648066   -2.084775
     22          1           0        0.242099    0.544728   -1.947722
     23          8           0       -1.105004   -0.972043    2.463901
     24          1           0       -1.828192   -1.140642    3.090035
     25          8           0        1.645920   -0.147846   -1.860011
     26          1           0        2.372807   -0.550723   -2.385336
     27          6           0        3.104567   -2.427566    0.762137
     28          1           0        4.149968   -2.689001    0.963808
     29          1           0        2.638916   -3.329178    0.348142
     30          1           0        2.626453   -2.201408    1.718551
     31          8           0        3.744545   -1.676097   -1.421121
     32          1           0        4.666345   -1.848402   -1.156871
     33          1           0        3.362785    1.675583    1.622127
     34          6           0        1.105611    2.289700    0.306377
     35          6           0        1.800835    2.762714   -0.741231
     36          1           0        1.552759    3.716671   -1.198251
     37          1           0        2.612513    2.218500   -1.203818
     38          6           0       -0.016820    3.123089    0.880518
     39          1           0       -0.961258    2.573429    0.874494
     40          1           0       -0.175053    4.049249    0.317421
     41          1           0        0.213542    3.402581    1.914037
     42          6           0       -5.119089   -0.009625   -0.187241
     43          1           0       -5.577796    0.233594    0.778939
     44          1           0       -5.389533    0.809125   -0.865177
     45          6           0       -5.688113   -1.319436   -0.710763
     46          1           0       -6.775754   -1.246685   -0.809992
     47          1           0       -5.464025   -2.149432   -0.032093
     48          1           0       -5.273552   -1.568102   -1.693618
 ---------------------------------------------------------------------

 SCF Done:  E(RB3LYP) =  -1002.54344828     A.U. after   14 cycles

 The electronic state is 1-A.
 Alpha  occ. eigenvalues --  -19.18759 -19.16789 -19.16620 -19.16511 -10.25482
 Alpha  occ. eigenvalues --  -10.24978 -10.24851 -10.24499 -10.20401 -10.19602
 Alpha  occ. eigenvalues --  -10.19542 -10.19361 -10.19251 -10.18072 -10.17777
 Alpha  occ. eigenvalues --  -10.17772 -10.17466 -10.17353 -10.17261 -10.17075
 Alpha  occ. eigenvalues --  -10.17075 -10.16516  -1.06458  -1.05991  -1.04402
 Alpha  occ. eigenvalues --   -1.01963  -0.85624  -0.83594  -0.79172  -0.78926
 Alpha  occ. eigenvalues --   -0.75443  -0.73991  -0.73147  -0.71094  -0.68116
 Alpha  occ. eigenvalues --   -0.67477  -0.64648  -0.62116  -0.61287  -0.60927
 Alpha  occ. eigenvalues --   -0.59098  -0.57041  -0.53964  -0.52003  -0.50995
 Alpha  occ. eigenvalues --   -0.50009  -0.49089  -0.48599  -0.48250  -0.46380
 Alpha  occ. eigenvalues --   -0.45799  -0.44289  -0.43372  -0.42815  -0.42774
 Alpha  occ. eigenvalues --   -0.42142  -0.41732  -0.41224  -0.40402  -0.40019
 Alpha  occ. eigenvalues --   -0.39725  -0.38954  -0.38630  -0.38424  -0.37957
 Alpha  occ. eigenvalues --   -0.37210  -0.37027  -0.36248  -0.35995  -0.35401
 Alpha  occ. eigenvalues --   -0.34611  -0.33824  -0.33087  -0.32930  -0.32172
 Alpha  occ. eigenvalues --   -0.30894  -0.30534  -0.30155  -0.29117  -0.27708
 Alpha  occ. eigenvalues --   -0.24474  -0.22534  -0.21554
 Alpha virt. eigenvalues --   -0.00459  -0.00046   0.00129   0.00972   0.01344
 Alpha virt. eigenvalues --    0.01930   0.02222   0.02977   0.03126   0.03348
 Alpha virt. eigenvalues --    0.04251   0.04403   0.04451   0.04825   0.05487

 Mulliken atomic charges:
              1
     1  C    0.054555
     2  C   -0.277004
     3  H    0.155654
     4  H    0.160220
     5  C   -0.424273
     6  H    0.157479
     7  C    0.009048
     8  H    0.145178
     9  C    0.318205
    10  H    0.165972
    11  C   -0.206273
    12  H    0.146232
    13  C    0.770679
    14  C    0.024514
    15  C    0.524574
    16  C   -0.778399
    17  C   -0.692729
    18  C   -0.167200
    19  H    0.145429
    20  H    0.148045
    21  O   -0.631832
    22  H    0.490323
    23  O   -0.601821
    24  H    0.448118
    25  O   -0.738241
    26  H    0.454573
    27  C   -0.303637
    28  H    0.166475
    29  H    0.160346
    30  H    0.174625
    31  O   -0.628152
    32  H    0.419073
    33  H    0.152827
    34  C    0.378717
    35  C   -0.474102
    36  H    0.140329
    37  H    0.143024
    38  C   -0.692808
    39  H    0.173679
    40  H    0.153288
    41  H    0.166721
    42  C   -0.113387
    43  H    0.150709
    44  H    0.151294
    45  C   -0.587535
    46  H    0.152087
    47  H    0.157618
    48  H    0.157786
 Sum of Mulliken atomic charges =   0.00000

 Dipole moment (field-independent basis, Debye):
    X=              2.5432    Y=             -2.9477    Z=              5.5958  Tot=              6.8169
 Quadrupole moment (field-independent basis, Debye-Ang):
   XX=           -103.9683   YY=           -136.9483   ZZ=           -135.0666
   XY=             -4.9554   XZ=             -6.6271   YZ=             -1.9947

 Normal termination of Gaussian 09 at Fri Dec 23 15:35:00 2022.
