 Gaussian 09, Revision C.01,

 ------------------------------------------------
 # mPW1PW91/6-31+G** scrf=(PCM,solvent=water) nmr
 ------------------------------------------------

 99/9=1/99;
 -------
 comment
 -------
 Charge =  0 Multiplicity = 1

 SCF Done:  E(RmPW1PW91) =  -1002.30613915     A.U. after   14 cycles

      1  C    Isotropic =   121.8036   Anisotropy =    47.7082

      2  C    Isotropic =   161.5557   Anisotropy =    27.5638

      3  H    Isotropic =    30.2061   Anisotropy =     8.7075

      4  H    Isotropic =    29.1329   Anisotropy =     5.5691

      5  C    Isotropic =   166.5845   Anisotropy =    18.4796

      6  H    Isotropic =    29.6029   Anisotropy =     8.7143

      7  C    Isotropic =   152.0832   Anisotropy =    19.0684

      8  H    Isotropic =    28.6096   Anisotropy =     6.1687

      9  C    Isotropic =   154.9511   Anisotropy =    23.4248

     10  H    Isotropic =    27.9052   Anisotropy =     8.6541

     11  C    Isotropic =   120.4938   Anisotropy =    37.6892

     12  H    Isotropic =    27.4683   Anisotropy =     4.7138

     13  C    Isotropic =    90.7236   Anisotropy =   111.1524

     14  C    Isotropic =    50.1503   Anisotropy =   189.9564

     15  C    Isotropic =    43.7775   Anisotropy =   125.5078

     16  C    Isotropic =    40.2060   Anisotropy =   133.6759

     17  C    Isotropic =    88.3237   Anisotropy =   104.8134

     18  C    Isotropic =    93.3683   Anisotropy =    94.4664

     19  H    Isotropic =    24.9467   Anisotropy =     7.8692

     20  H    Isotropic =    25.2103   Anisotropy =     6.8042

     21  O    Isotropic =   210.3628   Anisotropy =    74.0749

     22  H    Isotropic =    20.9392   Anisotropy =    30.9874

     23  O    Isotropic =   228.0700   Anisotropy =    55.2047

     24  H    Isotropic =    26.4516   Anisotropy =    15.2774

     25  O    Isotropic =   285.9285   Anisotropy =    40.0841

     26  H    Isotropic =    26.6913   Anisotropy =    18.4165

     27  C    Isotropic =   170.3581   Anisotropy =    40.5290

     28  H    Isotropic =    30.6132   Anisotropy =    10.2780

     29  H    Isotropic =    30.3492   Anisotropy =     8.9378

     30  H    Isotropic =    29.7008   Anisotropy =     7.6294

     31  O    Isotropic =   248.6162   Anisotropy =    59.9557

     32  H    Isotropic =    29.8040   Anisotropy =    17.0161

     33  H    Isotropic =    29.7482   Anisotropy =     9.2066

     34  C    Isotropic =    44.0409   Anisotropy =   178.3810

     35  C    Isotropic =    83.9289   Anisotropy =   101.2173

     36  H    Isotropic =    26.6009   Anisotropy =     5.6934

     37  H    Isotropic =    27.4199   Anisotropy =     8.0191

     38  C    Isotropic =   173.9125   Anisotropy =    29.3351

     39  H    Isotropic =    29.6130   Anisotropy =     7.4345

     40  H    Isotropic =    29.8420   Anisotropy =     9.0106

     41  H    Isotropic =    28.7262   Anisotropy =     5.8111

     42  C    Isotropic =   163.8313   Anisotropy =    29.4399

     43  H    Isotropic =    29.2791   Anisotropy =     7.1034

     44  H    Isotropic =    29.1975   Anisotropy =     7.0379

     45  C    Isotropic =   177.5998   Anisotropy =    29.4605

     46  H    Isotropic =    30.2951   Anisotropy =    11.9897

     47  H    Isotropic =    30.5854   Anisotropy =     7.5697

     48  H    Isotropic =    30.5939   Anisotropy =     7.3449

 Normal termination of Gaussian 09 at Fri Dec 23 14:59:24 2022.
 Gaussian 09:  EM64L-G09RevC.01 23-Sep-2011

 ----------------------------------------------------------------------
 # B3LYP/6-31+G** geom=allcheck test scrf=(pcm,solvent=water,smd,dovacu
 um)
 ----------------------------------------------------------------------

 Structure from the checkpoint file:  03_RSRS_THC_006_optB_NMR.chk
 -------
 comment
 -------
 Charge =  0 Multiplicity = 1

                         Standard orientation:
 ---------------------------------------------------------------------
 Center     Atomic      Atomic             Coordinates (Angstroms)
 Number     Number       Type             X           Y           Z
 ---------------------------------------------------------------------
      1          6           0        2.991449   -1.251579   -0.372132
      2          6           0        3.645327   -0.042167    0.315191
      3          1           0        4.648745   -0.315401    0.667439
      4          1           0        3.821552    0.746604   -0.424791
      5          6           0        2.834332    0.507985    1.489474
      6          1           0        2.865097   -0.231212    2.300994
      7          6           0        1.350112    0.808205    1.169145
      8          1           0        0.867270    0.811529    2.160809
      9          6           0        0.699731   -0.390747    0.405549
     10          1           0        0.782549   -1.225055    1.115210
     11          6           0        1.530700   -0.927463   -0.782035
     12          1           0        1.055358   -1.824208   -1.199074
     13          6           0       -0.810498   -0.247439    0.190765
     14          6           0       -3.651677   -0.011103   -0.022242
     15          6           0       -1.682798   -0.714810    1.198554
     16          6           0       -1.417419    0.359430   -0.919027
     17          6           0       -2.809405    0.470192   -1.026368
     18          6           0       -3.075012   -0.610793    1.097105
     19          1           0       -3.227900    0.947122   -1.910487
     20          1           0       -3.717543   -0.990942    1.886016
     21          8           0       -0.741590    0.913025   -1.968405
     22          1           0        0.216977    0.730608   -1.870506
     23          8           0       -1.152607   -1.288297    2.327707
     24          1           0       -1.879024   -1.520706    2.929087
     25          8           0        1.595685    0.015367   -1.863363
     26          1           0        2.331094   -0.320144   -2.423959
     27          6           0        3.090757   -2.520150    0.481053
     28          1           0        4.139523   -2.780526    0.665676
     29          1           0        2.652936   -3.374217   -0.048218
     30          1           0        2.593490   -2.425463    1.449579
     31          8           0        3.716549   -1.501865   -1.595605
     32          1           0        4.640040   -1.698993   -1.355474
     33          1           0        3.329939    1.399964    1.892056
     34          6           0        1.103811    2.219758    0.624449
     35          6           0        0.055290    2.938308    1.069624
     36          1           0       -0.142859    3.944444    0.713053
     37          1           0       -0.653172    2.530486    1.784798
     38          6           0        2.053587    2.846783   -0.358067
     39          1           0        3.051851    2.949724    0.077083
     40          1           0        1.732710    3.853888   -0.648637
     41          1           0        2.125555    2.267240   -1.277873
     42          6           0       -5.147184    0.098018   -0.159285
     43          1           0       -5.600890    0.217695    0.832128
     44          1           0       -5.401947    1.005574   -0.720114
     45          6           0       -5.741535   -1.118301   -0.852682
     46          1           0       -6.827591   -1.012083   -0.938128
     47          1           0       -5.533363   -2.036220   -0.292511
     48          1           0       -5.332096   -1.240297   -1.861233
 ---------------------------------------------------------------------

 SCF Done:  E(RB3LYP) =  -1002.54548381     A.U. after   14 cycles

 The electronic state is 1-A.
 Alpha  occ. eigenvalues --  -19.18733 -19.16936 -19.16598 -19.16543 -10.25464
 Alpha  occ. eigenvalues --  -10.24947 -10.24859 -10.24495 -10.20328 -10.19570
 Alpha  occ. eigenvalues --  -10.19516 -10.19497 -10.19250 -10.18060 -10.17762
 Alpha  occ. eigenvalues --  -10.17750 -10.17423 -10.17319 -10.17257 -10.17068
 Alpha  occ. eigenvalues --  -10.16766 -10.16740  -1.06436  -1.06080  -1.04439
 Alpha  occ. eigenvalues --   -1.02022  -0.85588  -0.83616  -0.79215  -0.78908
 Alpha  occ. eigenvalues --   -0.75435  -0.73992  -0.73116  -0.71077  -0.68449
 Alpha  occ. eigenvalues --   -0.67218  -0.64592  -0.62068  -0.61159  -0.60889
 Alpha  occ. eigenvalues --   -0.59080  -0.57079  -0.53939  -0.52015  -0.50999
 Alpha  occ. eigenvalues --   -0.50181  -0.49075  -0.48627  -0.48291  -0.46315
 Alpha  occ. eigenvalues --   -0.45602  -0.44213  -0.43491  -0.43249  -0.42839
 Alpha  occ. eigenvalues --   -0.41998  -0.41790  -0.41098  -0.40644  -0.39873
 Alpha  occ. eigenvalues --   -0.39683  -0.38934  -0.38748  -0.38493  -0.37526
 Alpha  occ. eigenvalues --   -0.37192  -0.37081  -0.36303  -0.36066  -0.35470
 Alpha  occ. eigenvalues --   -0.34041  -0.33602  -0.33219  -0.33064  -0.32262
 Alpha  occ. eigenvalues --   -0.30761  -0.30541  -0.30387  -0.29125  -0.27624
 Alpha  occ. eigenvalues --   -0.24349  -0.22833  -0.21565
 Alpha virt. eigenvalues --   -0.00475  -0.00033   0.00261   0.00784   0.01350
 Alpha virt. eigenvalues --    0.01904   0.02336   0.02895   0.03142   0.03356
 Alpha virt. eigenvalues --    0.04210   0.04399   0.04646   0.04826   0.05360

 Mulliken atomic charges:
              1
     1  C    0.137271
     2  C   -0.342774
     3  H    0.153992
     4  H    0.165726
     5  C   -0.448713
     6  H    0.160775
     7  C   -0.018380
     8  H    0.152434
     9  C    0.321551
    10  H    0.168509
    11  C   -0.276347
    12  H    0.145823
    13  C    0.723006
    14  C   -0.007078
    15  C    0.474818
    16  C   -0.700518
    17  C   -0.775014
    18  C   -0.110161
    19  H    0.145111
    20  H    0.147423
    21  O   -0.644364
    22  H    0.504763
    23  O   -0.600294
    24  H    0.447764
    25  O   -0.739983
    26  H    0.456732
    27  C   -0.317408
    28  H    0.166352
    29  H    0.160551
    30  H    0.174638
    31  O   -0.631147
    32  H    0.420160
    33  H    0.154571
    34  C    0.529079
    35  C   -0.547625
    36  H    0.145031
    37  H    0.140992
    38  C   -0.636991
    39  H    0.168344
    40  H    0.150341
    41  H    0.180594
    42  C   -0.080614
    43  H    0.150611
    44  H    0.151260
    45  C   -0.588193
    46  H    0.152042
    47  H    0.157610
    48  H    0.157728
 Sum of Mulliken atomic charges =   0.00000

 Dipole moment (field-independent basis, Debye):
    X=              3.6084    Y=             -3.7492    Z=              4.3673  Tot=              6.7934
 Quadrupole moment (field-independent basis, Debye-Ang):
   XX=           -101.6523   YY=           -136.8491   ZZ=           -136.4785
   XY=             -1.7236   XZ=             -7.6546   YZ=             -4.2554

 Normal termination of Gaussian 09 at Fri Dec 23 15:30:33 2022.
