 Gaussian 09, Revision C.01,

 ------------------------------------------------
 # mPW1PW91/6-31+G** scrf=(PCM,solvent=water) nmr
 ------------------------------------------------

 99/9=1/99;
 -------
 comment
 -------
 Charge =  0 Multiplicity = 1

 SCF Done:  E(RmPW1PW91) =  -1002.30587501     A.U. after   14 cycles

      1  C    Isotropic =   120.4790   Anisotropy =    48.5814

      2  C    Isotropic =   165.1784   Anisotropy =    21.2962

      3  H    Isotropic =    30.0256   Anisotropy =     9.5101

      4  H    Isotropic =    29.3273   Anisotropy =     6.7185

      5  C    Isotropic =   163.1092   Anisotropy =    26.1048

      6  H    Isotropic =    29.4585   Anisotropy =     8.4461

      7  C    Isotropic =   154.9525   Anisotropy =    17.8315

      8  H    Isotropic =    28.8077   Anisotropy =     5.8387

      9  C    Isotropic =   155.6025   Anisotropy =    18.9636

     10  H    Isotropic =    28.1515   Anisotropy =     7.8608

     11  C    Isotropic =   117.6692   Anisotropy =    35.9630

     12  H    Isotropic =    27.6414   Anisotropy =     4.7214

     13  C    Isotropic =    90.0866   Anisotropy =   114.5705

     14  C    Isotropic =    50.1571   Anisotropy =   189.8853

     15  C    Isotropic =    43.7016   Anisotropy =   125.0041

     16  C    Isotropic =    40.8130   Anisotropy =   133.6634

     17  C    Isotropic =    88.7890   Anisotropy =   106.1187

     18  C    Isotropic =    93.8827   Anisotropy =    95.6726

     19  H    Isotropic =    24.9325   Anisotropy =     7.6971

     20  H    Isotropic =    25.2583   Anisotropy =     6.9339

     21  O    Isotropic =   209.2987   Anisotropy =    75.9962

     22  H    Isotropic =    20.7267   Anisotropy =    29.4571

     23  O    Isotropic =   226.8988   Anisotropy =    45.7816

     24  H    Isotropic =    26.5471   Anisotropy =    15.1090

     25  O    Isotropic =   286.4935   Anisotropy =    53.9163

     26  H    Isotropic =    26.8801   Anisotropy =    17.9904

     27  C    Isotropic =   171.0089   Anisotropy =    39.8035

     28  H    Isotropic =    30.3011   Anisotropy =    10.4242

     29  H    Isotropic =    30.6879   Anisotropy =     8.9159

     30  H    Isotropic =    29.6413   Anisotropy =     7.7050

     31  O    Isotropic =   258.6195   Anisotropy =    97.9570

     32  H    Isotropic =    30.3099   Anisotropy =    18.0530

     33  H    Isotropic =    29.7282   Anisotropy =     8.8724

     34  C    Isotropic =    40.3322   Anisotropy =   181.3719

     35  C    Isotropic =    83.2960   Anisotropy =   120.8336

     36  H    Isotropic =    26.0640   Anisotropy =     5.6214

     37  H    Isotropic =    25.7737   Anisotropy =     6.7146

     38  C    Isotropic =   167.2678   Anisotropy =    43.2455

     39  H    Isotropic =    30.5257   Anisotropy =     7.6324

     40  H    Isotropic =    30.0193   Anisotropy =     8.5356

     41  H    Isotropic =    29.9886   Anisotropy =     8.3777

     42  C    Isotropic =   164.2755   Anisotropy =    29.7678

     43  H    Isotropic =    29.1943   Anisotropy =     7.6172

     44  H    Isotropic =    29.2785   Anisotropy =     7.4421

     45  C    Isotropic =   176.7237   Anisotropy =    29.6844

     46  H    Isotropic =    30.3052   Anisotropy =    11.9339

     47  H    Isotropic =    30.5431   Anisotropy =     7.1671

     48  H    Isotropic =    30.5813   Anisotropy =     7.1361

 Normal termination of Gaussian 09 at Fri Dec 23 14:58:26 2022.
 Gaussian 09:  EM64L-G09RevC.01 23-Sep-2011

 ----------------------------------------------------------------------
 # B3LYP/6-31+G** geom=allcheck test scrf=(pcm,solvent=water,smd,dovacu
 um)
 ----------------------------------------------------------------------

 Structure from the checkpoint file:  03_RSRS_THC_007_optB_NMR.chk
 -------
 comment
 -------
 Charge =  0 Multiplicity = 1

                         Standard orientation:
 ---------------------------------------------------------------------
 Center     Atomic      Atomic             Coordinates (Angstroms)
 Number     Number       Type             X           Y           Z
 ---------------------------------------------------------------------
      1          6           0       -3.193590   -0.962642    0.291452
      2          6           0       -3.665285    0.292345   -0.458245
      3          1           0       -4.656613    0.109767   -0.894372
      4          1           0       -3.836022    1.105333    0.255168
      5          6           0       -2.710510    0.751500   -1.562950
      6          1           0       -2.792922    0.036489   -2.392803
      7          6           0       -1.212165    0.846572   -1.171089
      8          1           0       -0.688374    0.776231   -2.138062
      9          6           0       -0.775299   -0.413488   -0.359258
     10          1           0       -0.935726   -1.248114   -1.054518
     11          6           0       -1.737957   -0.780158    0.793899
     12          1           0       -1.403189   -1.698354    1.292212
     13          6           0        0.722919   -0.483539   -0.053763
     14          6           0        3.545425   -0.685788    0.346124
     15          6           0        1.578330   -1.073255   -1.010398
     16          6           0        1.340874    0.028381    1.096745
     17          6           0        2.723366   -0.074428    1.294921
     18          6           0        2.960747   -1.179013   -0.820165
     19          1           0        3.152765    0.343284    2.203560
     20          1           0        3.590123   -1.639867   -1.576055
     21          8           0        0.691413    0.688717    2.099492
     22          1           0       -0.269689    0.724666    1.904056
     23          8           0        1.040786   -1.555060   -2.177928
     24          1           0        1.761459   -1.881260   -2.741747
     25          8           0       -1.759501    0.233154    1.814105
     26          1           0       -2.631254    0.136442    2.255866
     27          6           0       -3.383357   -2.226855   -0.553873
     28          1           0       -4.447295   -2.396210   -0.756837
     29          1           0       -3.030501   -3.111398   -0.011410
     30          1           0       -2.860505   -2.183840   -1.512669
     31          8           0       -4.031798   -1.090660    1.459882
     32          1           0       -3.887499   -1.977656    1.836912
     33          1           0       -3.060473    1.708673   -1.969797
     34          6           0       -0.793967    2.213304   -0.618758
     35          6           0       -1.481450    2.934972    0.282010
     36          1           0       -1.126843    3.906149    0.616016
     37          1           0       -2.398265    2.588746    0.738732
     38          6           0        0.473977    2.788862   -1.206731
     39          1           0        1.327326    2.128595   -1.035651
     40          1           0        0.725261    3.763704   -0.774862
     41          1           0        0.357315    2.929238   -2.286574
     42          6           0        5.033303   -0.769586    0.562336
     43          1           0        5.245866   -0.870225    1.633678
     44          1           0        5.424048   -1.678852    0.089458
     45          6           0        5.755044    0.448950    0.007387
     46          1           0        6.832622    0.360771    0.178101
     47          1           0        5.409234    1.369523    0.489745
     48          1           0        5.589521    0.552155   -1.070414
 ---------------------------------------------------------------------

 SCF Done:  E(RB3LYP) =  -1002.54514759     A.U. after   14 cycles

 The electronic state is 1-A.
 Alpha  occ. eigenvalues --  -19.18743 -19.16807 -19.16669 -19.16488 -10.25441
 Alpha  occ. eigenvalues --  -10.24960 -10.24957 -10.24155 -10.20249 -10.19582
 Alpha  occ. eigenvalues --  -10.19479 -10.19363 -10.19264 -10.18067 -10.17892
 Alpha  occ. eigenvalues --  -10.17760 -10.17716 -10.17393 -10.17344 -10.17072
 Alpha  occ. eigenvalues --  -10.17061 -10.16537  -1.06440  -1.05946  -1.04492
 Alpha  occ. eigenvalues --   -1.01822  -0.85597  -0.83583  -0.79143  -0.79024
 Alpha  occ. eigenvalues --   -0.75502  -0.73872  -0.73141  -0.71126  -0.68220
 Alpha  occ. eigenvalues --   -0.67474  -0.64522  -0.62164  -0.61771  -0.60594
 Alpha  occ. eigenvalues --   -0.59060  -0.56357  -0.53949  -0.52413  -0.51137
 Alpha  occ. eigenvalues --   -0.50039  -0.49154  -0.48562  -0.47755  -0.46958
 Alpha  occ. eigenvalues --   -0.45832  -0.44515  -0.43434  -0.43348  -0.42488
 Alpha  occ. eigenvalues --   -0.42346  -0.41504  -0.40854  -0.40515  -0.39851
 Alpha  occ. eigenvalues --   -0.39310  -0.38857  -0.38628  -0.38443  -0.37735
 Alpha  occ. eigenvalues --   -0.37534  -0.36682  -0.36264  -0.35994  -0.35078
 Alpha  occ. eigenvalues --   -0.34529  -0.33777  -0.33075  -0.32919  -0.32054
 Alpha  occ. eigenvalues --   -0.31164  -0.30485  -0.30367  -0.29565  -0.27879
 Alpha  occ. eigenvalues --   -0.24413  -0.22480  -0.21554
 Alpha virt. eigenvalues --   -0.00375  -0.00064   0.00110   0.00961   0.01446
 Alpha virt. eigenvalues --    0.01871   0.02193   0.02902   0.03063   0.03352
 Alpha virt. eigenvalues --    0.04245   0.04361   0.04639   0.04979   0.05414

 Mulliken atomic charges:
              1
     1  C   -0.073760
     2  C   -0.266623
     3  H    0.155163
     4  H    0.157379
     5  C   -0.418025
     6  H    0.158394
     7  C   -0.037452
     8  H    0.144667
     9  C    0.443480
    10  H    0.164231
    11  C   -0.138560
    12  H    0.143019
    13  C    0.708697
    14  C   -0.030118
    15  C    0.498907
    16  C   -0.746494
    17  C   -0.743841
    18  C   -0.184326
    19  H    0.145638
    20  H    0.147862
    21  O   -0.622848
    22  H    0.487939
    23  O   -0.601615
    24  H    0.447474
    25  O   -0.759956
    26  H    0.459788
    27  C   -0.285195
    28  H    0.172111
    29  H    0.161284
    30  H    0.177375
    31  O   -0.602955
    32  H    0.410088
    33  H    0.154629
    34  C    0.416553
    35  C   -0.469669
    36  H    0.140559
    37  H    0.141704
    38  C   -0.696218
    39  H    0.173153
    40  H    0.152875
    41  H    0.166553
    42  C   -0.017237
    43  H    0.151338
    44  H    0.150589
    45  C   -0.604511
    46  H    0.151867
    47  H    0.158242
    48  H    0.157844
 Sum of Mulliken atomic charges =   0.00000

 Dipole moment (field-independent basis, Debye):
    X=             -0.6916    Y=             -4.6443    Z=             -4.2171  Tot=              6.3113
 Quadrupole moment (field-independent basis, Debye-Ang):
   XX=           -122.0513   YY=           -130.1044   ZZ=           -133.4526
   XY=              3.3949   XZ=             -7.6911   YZ=             -0.9534

 Normal termination of Gaussian 09 at Fri Dec 23 15:29:53 2022.
