 Gaussian 09, Revision C.01,

 ------------------------------------------------
 # mPW1PW91/6-31+G** scrf=(PCM,solvent=water) nmr
 ------------------------------------------------

 99/9=1/99;
 -------
 comment
 -------
 Charge =  0 Multiplicity = 1

 SCF Done:  E(RmPW1PW91) =  -1002.30392601     A.U. after   14 cycles

      1  C    Isotropic =   123.0335   Anisotropy =    43.0651

      2  C    Isotropic =   163.0794   Anisotropy =    29.4410

      3  H    Isotropic =    29.7789   Anisotropy =     9.5636

      4  H    Isotropic =    29.4100   Anisotropy =     6.3473

      5  C    Isotropic =   166.8688   Anisotropy =    22.5094

      6  H    Isotropic =    29.2857   Anisotropy =     8.0625

      7  C    Isotropic =   151.2289   Anisotropy =    18.9549

      8  H    Isotropic =    28.3158   Anisotropy =     5.6683

      9  C    Isotropic =   149.5042   Anisotropy =    27.8194

     10  H    Isotropic =    27.8719   Anisotropy =     5.9293

     11  C    Isotropic =   122.1463   Anisotropy =    35.6813

     12  H    Isotropic =    26.4053   Anisotropy =     3.5800

     13  C    Isotropic =    91.6783   Anisotropy =   120.6132

     14  C    Isotropic =    50.2116   Anisotropy =   188.9929

     15  C    Isotropic =    41.1436   Anisotropy =   128.3917

     16  C    Isotropic =    43.6560   Anisotropy =   119.6004

     17  C    Isotropic =    91.4558   Anisotropy =    97.3645

     18  C    Isotropic =    90.9490   Anisotropy =   100.3775

     19  H    Isotropic =    25.1713   Anisotropy =     7.8449

     20  H    Isotropic =    25.0810   Anisotropy =     7.0167

     21  O    Isotropic =   230.6209   Anisotropy =    57.1957

     22  H    Isotropic =    26.5582   Anisotropy =    15.3698

     23  O    Isotropic =   225.7319   Anisotropy =    49.1200

     24  H    Isotropic =    26.3788   Anisotropy =    14.9683

     25  O    Isotropic =   296.4662   Anisotropy =    23.5536

     26  H    Isotropic =    29.2278   Anisotropy =    18.2151

     27  C    Isotropic =   167.0896   Anisotropy =    46.0199

     28  H    Isotropic =    30.5251   Anisotropy =     9.6569

     29  H    Isotropic =    29.7902   Anisotropy =     8.3455

     30  H    Isotropic =    30.3948   Anisotropy =     9.2693

     31  O    Isotropic =   288.0801   Anisotropy =    37.8032

     32  H    Isotropic =    28.9198   Anisotropy =    14.2564

     33  H    Isotropic =    30.1611   Anisotropy =     9.7155

     34  C    Isotropic =    42.5457   Anisotropy =   182.2408

     35  C    Isotropic =    86.6898   Anisotropy =   111.6704

     36  H    Isotropic =    26.3545   Anisotropy =     4.8896

     37  H    Isotropic =    26.3169   Anisotropy =     5.7567

     38  C    Isotropic =   166.4743   Anisotropy =    43.3210

     39  H    Isotropic =    30.4234   Anisotropy =     5.6514

     40  H    Isotropic =    30.1559   Anisotropy =     8.6531

     41  H    Isotropic =    29.8749   Anisotropy =     8.3347

     42  C    Isotropic =   164.1960   Anisotropy =    30.3574

     43  H    Isotropic =    29.3142   Anisotropy =     7.6645

     44  H    Isotropic =    29.2375   Anisotropy =     7.6214

     45  C    Isotropic =   176.3332   Anisotropy =    31.0548

     46  H    Isotropic =    30.2946   Anisotropy =    12.0256

     47  H    Isotropic =    30.6400   Anisotropy =     7.1613

     48  H    Isotropic =    30.6043   Anisotropy =     7.2141

 Normal termination of Gaussian 09 at Fri Dec 23 15:03:55 2022.
 Gaussian 09:  EM64L-G09RevC.01 23-Sep-2011

 ----------------------------------------------------------------------
 # B3LYP/6-31+G** geom=allcheck test scrf=(pcm,solvent=water,smd,dovacu
 um)
 ----------------------------------------------------------------------

 Structure from the checkpoint file:  04_RSSR_THC_001_optB_NMR.chk
 -------
 comment
 -------
 Charge =  0 Multiplicity = 1

                         Standard orientation:
 ---------------------------------------------------------------------
 Center     Atomic      Atomic             Coordinates (Angstroms)
 Number     Number       Type             X           Y           Z
 ---------------------------------------------------------------------
      1          6           0        3.284023   -0.700911    0.037290
      2          6           0        3.629603    0.791098    0.063220
      3          1           0        4.628739    0.931149    0.496299
      4          1           0        3.677373    1.189116   -0.955368
      5          6           0        2.645124    1.611172    0.893990
      6          1           0        2.793690    1.354207    1.951708
      7          6           0        1.160326    1.379252    0.548904
      8          1           0        0.620699    1.792143    1.414517
      9          6           0        0.817716   -0.142892    0.514550
     10          1           0        1.012659   -0.527700    1.528015
     11          6           0        1.806833   -0.946889   -0.369635
     12          1           0        1.704930   -0.708345   -1.430061
     13          6           0       -0.688458   -0.381784    0.315099
     14          6           0       -3.509159   -0.723502    0.074401
     15          6           0       -1.559201   -0.186011    1.405923
     16          6           0       -1.281507   -0.751230   -0.899936
     17          6           0       -2.666958   -0.918820   -1.024124
     18          6           0       -2.943265   -0.350033    1.294986
     19          1           0       -3.100546   -1.210936   -1.977242
     20          1           0       -3.587829   -0.184456    2.153841
     21          8           0       -0.507464   -0.978378   -2.002215
     22          1           0       -1.077420   -0.985864   -2.789486
     23          8           0       -1.034196    0.182910    2.616763
     24          1           0       -1.745566    0.221374    3.275897
     25          8           0        1.553648   -2.359083   -0.212993
     26          1           0        0.664764   -2.499032   -0.591947
     27          6           0        4.248326   -1.443843   -0.895732
     28          1           0        4.141615   -1.109182   -1.932673
     29          1           0        4.083973   -2.526513   -0.861202
     30          1           0        5.287534   -1.283543   -0.585824
     31          8           0        3.494080   -1.237115    1.353952
     32          1           0        3.024828   -2.097195    1.345693
     33          1           0        2.895881    2.675972    0.807520
     34          6           0        0.689237    2.218246   -0.646671
     35          6           0        1.120104    2.093226   -1.913038
     36          1           0        0.734666    2.731243   -2.703390
     37          1           0        1.856083    1.361655   -2.217464
     38          6           0       -0.346617    3.264308   -0.312921
     39          1           0       -1.244484    2.794915    0.101430
     40          1           0       -0.652128    3.842149   -1.191704
     41          1           0        0.051925    3.969261    0.424101
     42          6           0       -5.001103   -0.885127   -0.062965
     43          1           0       -5.221562   -1.663218   -0.803920
     44          1           0       -5.422964   -1.241495    0.884715
     45          6           0       -5.675113    0.416774   -0.468338
     46          1           0       -6.755977    0.270643   -0.560355
     47          1           0       -5.298019    0.776272   -1.431802
     48          1           0       -5.500870    1.202495    0.274622
 ---------------------------------------------------------------------

 SCF Done:  E(RB3LYP) =  -1002.54653190     A.U. after   14 cycles

 The electronic state is 1-A.
 Alpha  occ. eigenvalues --  -19.18789 -19.18685 -19.16423 -19.15593 -10.25577
 Alpha  occ. eigenvalues --  -10.25523 -10.24239 -10.23445 -10.19862 -10.19749
 Alpha  occ. eigenvalues --  -10.19696 -10.19527 -10.18909 -10.18172 -10.18035
 Alpha  occ. eigenvalues --  -10.17979 -10.17537 -10.17513 -10.17216 -10.17120
 Alpha  occ. eigenvalues --  -10.16710 -10.16705  -1.06829  -1.06504  -1.04040
 Alpha  occ. eigenvalues --   -1.01430  -0.85775  -0.83418  -0.79241  -0.78709
 Alpha  occ. eigenvalues --   -0.75380  -0.73859  -0.73228  -0.71218  -0.67891
 Alpha  occ. eigenvalues --   -0.67429  -0.64275  -0.63707  -0.61026  -0.59743
 Alpha  occ. eigenvalues --   -0.57391  -0.55816  -0.55322  -0.52862  -0.51654
 Alpha  occ. eigenvalues --   -0.50648  -0.49174  -0.48261  -0.46897  -0.45671
 Alpha  occ. eigenvalues --   -0.45262  -0.44490  -0.43475  -0.42908  -0.42724
 Alpha  occ. eigenvalues --   -0.42084  -0.41741  -0.41241  -0.40744  -0.40352
 Alpha  occ. eigenvalues --   -0.39635  -0.38856  -0.38444  -0.38146  -0.37898
 Alpha  occ. eigenvalues --   -0.36995  -0.36864  -0.36508  -0.35934  -0.35166
 Alpha  occ. eigenvalues --   -0.34853  -0.34261  -0.33143  -0.33051  -0.31953
 Alpha  occ. eigenvalues --   -0.30970  -0.30749  -0.29631  -0.28288  -0.26941
 Alpha  occ. eigenvalues --   -0.24533  -0.22913  -0.22170
 Alpha virt. eigenvalues --   -0.00559  -0.00144   0.00070   0.00671   0.01428
 Alpha virt. eigenvalues --    0.01733   0.01912   0.02696   0.03117   0.03444
 Alpha virt. eigenvalues --    0.03953   0.04568   0.04821   0.04960   0.05490

 Mulliken atomic charges:
              1
     1  C    0.431136
     2  C   -0.331487
     3  H    0.157431
     4  H    0.165336
     5  C   -0.522358
     6  H    0.154937
     7  C    0.330799
     8  H    0.145015
     9  C   -0.045504
    10  H    0.156615
    11  C   -0.027945
    12  H    0.165295
    13  C    0.697068
    14  C    0.001088
    15  C    0.450500
    16  C   -0.776257
    17  C   -0.913892
    18  C   -0.087952
    19  H    0.149037
    20  H    0.151139
    21  O   -0.587969
    22  H    0.456033
    23  O   -0.599342
    24  H    0.450578
    25  O   -0.686026
    26  H    0.424256
    27  C   -0.334943
    28  H    0.161259
    29  H    0.160164
    30  H    0.161079
    31  O   -0.630669
    32  H    0.401859
    33  H    0.148620
    34  C    0.268704
    35  C   -0.462437
    36  H    0.142077
    37  H    0.147652
    38  C   -0.718083
    39  H    0.172570
    40  H    0.154721
    41  H    0.169373
    42  C   -0.015014
    43  H    0.152169
    44  H    0.152311
    45  C   -0.607933
    46  H    0.152662
    47  H    0.158083
    48  H    0.158247
 Sum of Mulliken atomic charges =   0.00000

 Dipole moment (field-independent basis, Debye):
    X=             -7.0726    Y=              1.2288    Z=             -2.3660  Tot=              7.5584
 Quadrupole moment (field-independent basis, Debye-Ang):
   XX=           -129.4660   YY=           -138.5232   ZZ=           -122.5382
   XY=              8.1009   XZ=             -9.4932   YZ=              5.8848

 Normal termination of Gaussian 09 at Fri Dec 23 15:34:15 2022.
