 Gaussian 09, Revision C.01,

 ------------------------------------------------
 # mPW1PW91/6-31+G** scrf=(PCM,solvent=water) nmr
 ------------------------------------------------

 99/9=1/99;
 -------
 comment
 -------
 Charge =  0 Multiplicity = 1

 SCF Done:  E(RmPW1PW91) =  -1002.29996286     A.U. after   14 cycles

      1  C    Isotropic =   122.1503   Anisotropy =    39.6591

      2  C    Isotropic =   161.3623   Anisotropy =    33.4167

      3  H    Isotropic =    30.2278   Anisotropy =     9.2894

      4  H    Isotropic =    29.7635   Anisotropy =     6.1036

      5  C    Isotropic =   170.4753   Anisotropy =    22.6979

      6  H    Isotropic =    29.4063   Anisotropy =     7.0367

      7  C    Isotropic =   148.5231   Anisotropy =    20.7928

      8  H    Isotropic =    28.3667   Anisotropy =     8.0417

      9  C    Isotropic =   148.8090   Anisotropy =    32.8824

     10  H    Isotropic =    28.4059   Anisotropy =     4.9206

     11  C    Isotropic =   122.4517   Anisotropy =    40.2178

     12  H    Isotropic =    26.4799   Anisotropy =     2.0518

     13  C    Isotropic =    81.3596   Anisotropy =   127.2479

     14  C    Isotropic =    50.2368   Anisotropy =   190.1697

     15  C    Isotropic =    45.2427   Anisotropy =   117.9961

     16  C    Isotropic =    42.1183   Anisotropy =   121.5990

     17  C    Isotropic =    84.4414   Anisotropy =   111.6620

     18  C    Isotropic =    87.2147   Anisotropy =   112.6333

     19  H    Isotropic =    24.6737   Anisotropy =     8.0460

     20  H    Isotropic =    24.7041   Anisotropy =     7.6827

     21  O    Isotropic =   235.3152   Anisotropy =    60.9427

     22  H    Isotropic =    23.0854   Anisotropy =    25.5717

     23  O    Isotropic =   238.5674   Anisotropy =    77.2144

     24  H    Isotropic =    27.5366   Anisotropy =    12.1650

     25  O    Isotropic =   288.1894   Anisotropy =    46.5256

     26  H    Isotropic =    27.8204   Anisotropy =    15.4330

     27  C    Isotropic =   167.8300   Anisotropy =    46.6019

     28  H    Isotropic =    30.4290   Anisotropy =     9.7473

     29  H    Isotropic =    29.6630   Anisotropy =     8.3585

     30  H    Isotropic =    30.6568   Anisotropy =     9.3645

     31  O    Isotropic =   271.3194   Anisotropy =    74.9761

     32  H    Isotropic =    30.5357   Anisotropy =    18.0162

     33  H    Isotropic =    29.8983   Anisotropy =     9.7626

     34  C    Isotropic =    49.3565   Anisotropy =   169.4738

     35  C    Isotropic =    85.2253   Anisotropy =   115.8590

     36  H    Isotropic =    26.2974   Anisotropy =     4.4395

     37  H    Isotropic =    26.4578   Anisotropy =     5.5568

     38  C    Isotropic =   170.4807   Anisotropy =    40.1106

     39  H    Isotropic =    30.2064   Anisotropy =     7.9472

     40  H    Isotropic =    29.8159   Anisotropy =     8.5456

     41  H    Isotropic =    29.5924   Anisotropy =     7.9091

     42  C    Isotropic =   165.1388   Anisotropy =    27.9356

     43  H    Isotropic =    29.2146   Anisotropy =     7.2829

     44  H    Isotropic =    29.1750   Anisotropy =     7.4289

     45  C    Isotropic =   176.8342   Anisotropy =    29.8913

     46  H    Isotropic =    30.2963   Anisotropy =    11.9734

     47  H    Isotropic =    30.5757   Anisotropy =     7.5591

     48  H    Isotropic =    30.5885   Anisotropy =     7.2643

 Normal termination of Gaussian 09 at Fri Dec 23 15:08:31 2022.
 Gaussian 09:  EM64L-G09RevC.01 23-Sep-2011

 ----------------------------------------------------------------------
 # B3LYP/6-31+G** geom=allcheck test scrf=(pcm,solvent=water,smd,dovacu
 um)
 ----------------------------------------------------------------------

 Structure from the checkpoint file:  04_RSSR_THC_010_optB_NMR.chk
 -------
 comment
 -------
 Charge =  0 Multiplicity = 1

                         Standard orientation:
 ---------------------------------------------------------------------
 Center     Atomic      Atomic             Coordinates (Angstroms)
 Number     Number       Type             X           Y           Z
 ---------------------------------------------------------------------
      1          6           0        3.110595   -1.031750    0.162716
      2          6           0        3.645270    0.400799    0.090526
      3          1           0        4.655043    0.444993    0.517519
      4          1           0        3.722594    0.726647   -0.953704
      5          6           0        2.759741    1.368750    0.869620
      6          1           0        2.768091    1.092345    1.932432
      7          6           0        1.297430    1.371968    0.366658
      8          1           0        0.752667    2.004403    1.078556
      9          6           0        0.717808   -0.088006    0.504555
     10          1           0        0.829947   -0.377024    1.561040
     11          6           0        1.619972   -1.104329   -0.255011
     12          1           0        1.555172   -0.963468   -1.336655
     13          6           0       -0.809297   -0.146403    0.297349
     14          6           0       -3.634537    0.040877   -0.158770
     15          6           0       -1.664305    0.599686    1.138061
     16          6           0       -1.453957   -0.874786   -0.717848
     17          6           0       -2.829409   -0.769450   -0.958708
     18          6           0       -3.039519    0.711117    0.908347
     19          1           0       -3.266737   -1.341287   -1.774281
     20          1           0       -3.641665    1.319240    1.579323
     21          8           0       -0.811584   -1.760062   -1.538356
     22          1           0       -0.197458   -2.275772   -0.968679
     23          8           0       -1.224580    1.254505    2.259428
     24          1           0       -0.476960    0.759067    2.627958
     25          8           0        1.144421   -2.440852    0.029391
     26          1           0        1.544250   -2.661604    0.898784
     27          6           0        3.971250   -1.968764   -0.692176
     28          1           0        3.920219   -1.703941   -1.753226
     29          1           0        3.658048   -3.012330   -0.577633
     30          1           0        5.020468   -1.928012   -0.377563
     31          8           0        3.192085   -1.500503    1.523070
     32          1           0        4.131930   -1.486848    1.781848
     33          1           0        3.198695    2.371456    0.829415
     34          6           0        1.173814    2.116634   -0.973918
     35          6           0        0.734646    1.605868   -2.136464
     36          1           0        0.650346    2.223476   -3.027239
     37          1           0        0.411148    0.581869   -2.265288
     38          6           0        1.514138    3.591004   -0.927354
     39          1           0        1.007151    4.074870   -0.086094
     40          1           0        1.201173    4.116866   -1.836260
     41          1           0        2.592827    3.738366   -0.821875
     42          6           0       -5.115230    0.143712   -0.407278
     43          1           0       -5.470183    1.139002   -0.113141
     44          1           0       -5.315620    0.056207   -1.482124
     45          6           0       -5.892788   -0.922901    0.348662
     46          1           0       -6.964313   -0.822968    0.148774
     47          1           0       -5.739645   -0.835140    1.429650
     48          1           0       -5.583658   -1.929259    0.046388
 ---------------------------------------------------------------------

 SCF Done:  E(RB3LYP) =  -1002.54008956     A.U. after   14 cycles

 The electronic state is 1-A.
 Alpha  occ. eigenvalues --  -19.18565 -19.17340 -19.16798 -19.16365 -10.25234
 Alpha  occ. eigenvalues --  -10.24852 -10.24802 -10.24603 -10.20608 -10.19961
 Alpha  occ. eigenvalues --  -10.19953 -10.19501 -10.19477 -10.18041 -10.17789
 Alpha  occ. eigenvalues --  -10.17652 -10.17594 -10.17575 -10.17295 -10.17074
 Alpha  occ. eigenvalues --  -10.17057 -10.16877  -1.06481  -1.05947  -1.04410
 Alpha  occ. eigenvalues --   -1.02049  -0.85519  -0.83690  -0.78999  -0.78914
 Alpha  occ. eigenvalues --   -0.75572  -0.74230  -0.73348  -0.71047  -0.68103
 Alpha  occ. eigenvalues --   -0.67577  -0.64798  -0.61138  -0.60727  -0.60429
 Alpha  occ. eigenvalues --   -0.59605  -0.58501  -0.53339  -0.52037  -0.51441
 Alpha  occ. eigenvalues --   -0.51085  -0.48124  -0.47824  -0.47328  -0.46223
 Alpha  occ. eigenvalues --   -0.45623  -0.45148  -0.44123  -0.43134  -0.42981
 Alpha  occ. eigenvalues --   -0.42287  -0.41784  -0.41666  -0.41101  -0.40717
 Alpha  occ. eigenvalues --   -0.40152  -0.39287  -0.38024  -0.37813  -0.37280
 Alpha  occ. eigenvalues --   -0.36866  -0.36539  -0.36165  -0.35746  -0.35460
 Alpha  occ. eigenvalues --   -0.34013  -0.33727  -0.33389  -0.33064  -0.32902
 Alpha  occ. eigenvalues --   -0.31404  -0.31195  -0.29669  -0.28967  -0.27547
 Alpha  occ. eigenvalues --   -0.24664  -0.22852  -0.22126
 Alpha virt. eigenvalues --   -0.00578  -0.00329   0.00140   0.00540   0.01580
 Alpha virt. eigenvalues --    0.01776   0.01966   0.02658   0.03523   0.03828
 Alpha virt. eigenvalues --    0.04216   0.04476   0.04796   0.04927   0.05374

 Mulliken atomic charges:
              1
     1  C    0.125693
     2  C   -0.300594
     3  H    0.159258
     4  H    0.165924
     5  C   -0.556745
     6  H    0.157996
     7  C    0.249036
     8  H    0.158573
     9  C   -0.094576
    10  H    0.160344
    11  C   -0.120992
    12  H    0.186174
    13  C    0.261094
    14  C    0.148433
    15  C    0.401596
    16  C   -0.188342
    17  C   -0.661415
    18  C   -0.072863
    19  H    0.147801
    20  H    0.150202
    21  O   -0.634008
    22  H    0.456782
    23  O   -0.582400
    24  H    0.419776
    25  O   -0.664960
    26  H    0.425087
    27  C   -0.279571
    28  H    0.168072
    29  H    0.165682
    30  H    0.164716
    31  O   -0.688937
    32  H    0.423073
    33  H    0.149874
    34  C    0.422707
    35  C   -0.695761
    36  H    0.144311
    37  H    0.148892
    38  C   -0.636799
    39  H    0.166813
    40  H    0.161244
    41  H    0.171685
    42  C   -0.060222
    43  H    0.151048
    44  H    0.151590
    45  C   -0.591408
    46  H    0.151587
    47  H    0.157409
    48  H    0.157124
 Sum of Mulliken atomic charges =   0.00000

 Dipole moment (field-independent basis, Debye):
    X=              6.6245    Y=              0.8416    Z=              2.8736  Tot=              7.2698
 Quadrupole moment (field-independent basis, Debye-Ang):
   XX=           -108.5955   YY=           -139.1415   ZZ=           -137.2515
   XY=             -1.3896   XZ=              6.0671   YZ=             -5.7022

 Normal termination of Gaussian 09 at Fri Dec 23 15:43:30 2022.
