 Gaussian 09, Revision C.01,
 Gaussian 09:  EM64L-G09RevC.01 23-Sep-2011

 -----------------------------------------------------------------
 # mPW1PW91/6-31g** scrf=(pcm,solvent=chloroform,smd,dovacuum) nmr
 -----------------------------------------------------------------

 99/9=1/99;
 -------
 comment
 -------
 Charge =  0 Multiplicity = 1

                         Standard orientation:
 ---------------------------------------------------------------------
 Center     Atomic      Atomic             Coordinates (Angstroms)
 Number     Number       Type             X           Y           Z
 ---------------------------------------------------------------------
      1          6           0       -1.813907   -0.843478    0.491837
      2          1           0       -0.915219   -1.410389    0.754655
      3          6           0       -1.496855    0.139426   -0.654202
      4          1           0       -1.260720   -0.423629   -1.564772
      5          6           0       -0.270482    0.991341   -0.306914
      6          8           0       -0.350707    2.208439   -0.135253
      7          8           0       -2.209686   -0.165126    1.680782
      8          1           0       -3.042818    0.307806    1.513826
      9          6           0       -2.675129    1.053101   -1.016863
     10          1           0       -2.401098    1.720928   -1.841884
     11          1           0       -2.978419    1.686514   -0.176882
     12          1           0       -3.544097    0.474402   -1.343315
     13          6           0        1.074834    0.348727   -0.185324
     14          6           0        3.636205   -0.753224    0.096509
     15          6           0        2.060415    1.018546    0.553342
     16          6           0        1.388035   -0.872973   -0.793744
     17          6           0        2.665874   -1.421541   -0.648792
     18          6           0        3.335122    0.467635    0.696136
     19          1           0        1.836037    1.973712    1.025425
     20          1           0        0.665446   -1.415479   -1.393988
     21          1           0        2.907186   -2.370684   -1.121705
     22          1           0        4.090773    0.993484    1.274476
     23          1           0        4.629408   -1.181808    0.206959
     24          6           0       -2.898068   -1.853048    0.127089
     25          1           0       -3.022271   -2.579275    0.938223
     26          1           0       -2.644439   -2.397036   -0.787624
     27          1           0       -3.872880   -1.372120   -0.002076
 ---------------------------------------------------------------------

 SCF Done:  E(RmPW1PW91) =  -577.946381493     A.U. after   12 cycles

      1  C    Isotropic =   127.2647   Anisotropy =    44.7472

      2  H    Isotropic =    27.1731   Anisotropy =     7.5753

      3  C    Isotropic =   147.3751   Anisotropy =    24.1914

      4  H    Isotropic =    28.0947   Anisotropy =     7.2790

      5  C    Isotropic =    -8.6223   Anisotropy =   170.1948

      6  O    Isotropic =  -260.7530   Anisotropy =   963.2140

      7  O    Isotropic =   290.8948   Anisotropy =    47.1457

      8  H    Isotropic =    30.6007   Anisotropy =    14.5881

      9  C    Isotropic =   186.9430   Anisotropy =     8.5949

     10  H    Isotropic =    30.5426   Anisotropy =    10.1352

     11  H    Isotropic =    30.3370   Anisotropy =     8.5796

     12  H    Isotropic =    30.7264   Anisotropy =     9.1016

     13  C    Isotropic =    63.4980   Anisotropy =   159.0431

     14  C    Isotropic =    66.5440   Anisotropy =   181.0012

     15  C    Isotropic =    68.6752   Anisotropy =   180.1839

     16  C    Isotropic =    70.6486   Anisotropy =   173.4461

     17  C    Isotropic =    70.4544   Anisotropy =   173.2980

     18  C    Isotropic =    69.3994   Anisotropy =   175.2311

     19  H    Isotropic =    23.1767   Anisotropy =     7.1140

     20  H    Isotropic =    23.4461   Anisotropy =     8.6816

     21  H    Isotropic =    23.7768   Anisotropy =     5.2306

     22  H    Isotropic =    23.6794   Anisotropy =     4.7651

     23  H    Isotropic =    23.6823   Anisotropy =     4.4592

     24  C    Isotropic =   172.6319   Anisotropy =    36.3412

     25  H    Isotropic =    30.3079   Anisotropy =     9.5309

     26  H    Isotropic =    30.6081   Anisotropy =     9.6543

     27  H    Isotropic =    30.5349   Anisotropy =     6.3212

 The electronic state is 1-A.
 Alpha  occ. eigenvalues --  -19.22928 -19.22682 -10.33444 -10.29647 -10.26239
 Alpha  occ. eigenvalues --  -10.26061 -10.25746 -10.25670 -10.25546 -10.25433
 Alpha  occ. eigenvalues --  -10.25414 -10.23075 -10.22844  -1.06017  -1.03956
 Alpha  occ. eigenvalues --   -0.88544  -0.82079  -0.78189  -0.77115  -0.74518
 Alpha  occ. eigenvalues --   -0.68552  -0.64274  -0.62581  -0.60377  -0.55981
 Alpha  occ. eigenvalues --   -0.53045  -0.49961  -0.48567  -0.47433  -0.46730
 Alpha  occ. eigenvalues --   -0.45448  -0.44883  -0.43305  -0.43252  -0.40598
 Alpha  occ. eigenvalues --   -0.39510  -0.38925  -0.37366  -0.37025  -0.36819
 Alpha  occ. eigenvalues --   -0.36114  -0.35476  -0.34899  -0.32222  -0.28170
 Alpha  occ. eigenvalues --   -0.26929  -0.26712  -0.25460
 Alpha virt. eigenvalues --   -0.04662  -0.00270   0.04315   0.09414   0.11040
 Alpha virt. eigenvalues --    0.13071   0.14676   0.15546   0.16905   0.17253
 Alpha virt. eigenvalues --    0.17478   0.18149   0.18347   0.19659   0.20984

 Mulliken atomic charges:
              1
     1  C    0.131851
     2  H    0.150668
     3  C   -0.220667
     4  H    0.170103
     5  C    0.426579
     6  O   -0.502416
     7  O   -0.588335
     8  H    0.344509
     9  C   -0.416236
    10  H    0.150602
    11  H    0.143863
    12  H    0.141030
    13  C   -0.006498
    14  C   -0.132761
    15  C   -0.135425
    16  C   -0.153561
    17  C   -0.161366
    18  C   -0.156027
    19  H    0.163504
    20  H    0.163121
    21  H    0.158743
    22  H    0.159800
    23  H    0.159621
    24  C   -0.417531
    25  H    0.147519
    26  H    0.137820
    27  H    0.141491
 Sum of Mulliken atomic charges =   0.00000

 Dipole moment (field-independent basis, Debye):
    X=             -0.1461    Y=             -3.5374    Z=             -1.9380  Tot=              4.0362
 Quadrupole moment (field-independent basis, Debye-Ang):
   XX=            -59.9447   YY=            -80.0937   ZZ=            -79.1024
   XY=             -1.1670   XZ=              4.0810   YZ=              4.7756

 Normal termination of Gaussian 09 at Tue Dec 21 09:06:00 2021.
