 Gaussian 09, Revision C.01,
 Gaussian 09:  EM64L-G09RevC.01 23-Sep-2011

 -----------------------------------------------------------------
 # mPW1PW91/6-31g** scrf=(pcm,solvent=chloroform,smd,dovacuum) nmr
 -----------------------------------------------------------------

 99/9=1/99;
 -------
 comment
 -------
 Charge =  0 Multiplicity = 1

                         Standard orientation:
 ---------------------------------------------------------------------
 Center     Atomic      Atomic             Coordinates (Angstroms)
 Number     Number       Type             X           Y           Z
 ---------------------------------------------------------------------
      1          6           0       -2.636199   -0.332099   -0.234835
      2          1           0       -2.971304   -0.930499    0.620919
      3          6           0       -1.393703    0.508897    0.118158
      4          1           0       -1.092672    1.045784   -0.787537
      5          6           0       -0.267908   -0.396433    0.605090
      6          8           0       -0.496331   -1.360030    1.337002
      7          8           0       -3.712279    0.532934   -0.611893
      8          1           0       -4.151560    0.821213    0.207160
      9          6           0       -1.692945    1.535654    1.212843
     10          1           0       -0.785668    2.069695    1.514799
     11          1           0       -2.099717    1.051699    2.107839
     12          1           0       -2.416323    2.281928    0.869500
     13          6           0        1.144224   -0.111968    0.203551
     14          6           0        3.823359    0.305986   -0.510147
     15          6           0        1.549139    1.117057   -0.330869
     16          6           0        2.097216   -1.124542    0.386955
     17          6           0        3.430670   -0.916728    0.029138
     18          6           0        2.885486    1.321790   -0.687891
     19          1           0        0.854516    1.939677   -0.468555
     20          1           0        1.804384   -2.084281    0.809640
     21          1           0        4.160801   -1.709280    0.173779
     22          1           0        3.196582    2.278248   -1.101951
     23          1           0        4.862008    0.468988   -0.787753
     24          6           0       -2.386606   -1.261848   -1.419406
     25          1           0       -3.307529   -1.792661   -1.685306
     26          1           0       -1.614106   -2.004768   -1.201899
     27          1           0       -2.086932   -0.693577   -2.307035
 ---------------------------------------------------------------------

 SCF Done:  E(RmPW1PW91) =  -577.947542409     A.U. after   12 cycles

      1  C    Isotropic =   125.3198   Anisotropy =    45.5232

      2  H    Isotropic =    27.3805   Anisotropy =     5.8427

      3  C    Isotropic =   144.4001   Anisotropy =    34.5133

      4  H    Isotropic =    28.1806   Anisotropy =     6.0227

      5  C    Isotropic =    -8.1934   Anisotropy =   175.0520

      6  O    Isotropic =  -229.6094   Anisotropy =   938.1091

      7  O    Isotropic =   297.8875   Anisotropy =    46.5059

      8  H    Isotropic =    29.7491   Anisotropy =    18.2921

      9  C    Isotropic =   178.3304   Anisotropy =    24.4608

     10  H    Isotropic =    30.2804   Anisotropy =     8.0643

     11  H    Isotropic =    30.6537   Anisotropy =     9.0569

     12  H    Isotropic =    29.9648   Anisotropy =     8.8473

     13  C    Isotropic =    63.3963   Anisotropy =   160.5722

     14  C    Isotropic =    66.2094   Anisotropy =   181.9897

     15  C    Isotropic =    70.2021   Anisotropy =   175.7283

     16  C    Isotropic =    69.4960   Anisotropy =   182.9646

     17  C    Isotropic =    69.6959   Anisotropy =   174.3775

     18  C    Isotropic =    70.1322   Anisotropy =   173.5288

     19  H    Isotropic =    23.2693   Anisotropy =     9.1789

     20  H    Isotropic =    23.2039   Anisotropy =     7.2280

     21  H    Isotropic =    23.7261   Anisotropy =     4.8176

     22  H    Isotropic =    23.7578   Anisotropy =     5.2226

     23  H    Isotropic =    23.6967   Anisotropy =     4.4874

     24  C    Isotropic =   174.6395   Anisotropy =    31.7548

     25  H    Isotropic =    30.4515   Anisotropy =    10.5672

     26  H    Isotropic =    30.6811   Anisotropy =     7.3515

     27  H    Isotropic =    30.8472   Anisotropy =     6.7262

 The electronic state is 1-A.
 Alpha  occ. eigenvalues --  -19.22794 -19.22759 -10.33610 -10.29048 -10.26297
 Alpha  occ. eigenvalues --  -10.26142 -10.25857 -10.25771 -10.25603 -10.25495
 Alpha  occ. eigenvalues --  -10.25027 -10.23645 -10.22473  -1.06258  -1.03620
 Alpha  occ. eigenvalues --   -0.88625  -0.82162  -0.78267  -0.77179  -0.74908
 Alpha  occ. eigenvalues --   -0.67331  -0.64387  -0.62658  -0.59928  -0.55595
 Alpha  occ. eigenvalues --   -0.53840  -0.51618  -0.48688  -0.46982  -0.45817
 Alpha  occ. eigenvalues --   -0.45261  -0.44372  -0.43478  -0.42572  -0.41125
 Alpha  occ. eigenvalues --   -0.39163  -0.38998  -0.38088  -0.37023  -0.36843
 Alpha  occ. eigenvalues --   -0.35534  -0.35332  -0.35087  -0.32392  -0.28180
 Alpha  occ. eigenvalues --   -0.26940  -0.26708  -0.25472
 Alpha virt. eigenvalues --   -0.05062  -0.00337   0.04520   0.09647   0.11226
 Alpha virt. eigenvalues --    0.13405   0.14223   0.16117   0.16853   0.17450
 Alpha virt. eigenvalues --    0.17676   0.18363   0.18835   0.19849   0.20179

 Mulliken atomic charges:
              1
     1  C    0.130079
     2  H    0.135944
     3  C   -0.193685
     4  H    0.152006
     5  C    0.429556
     6  O   -0.520081
     7  O   -0.593943
     8  H    0.347309
     9  C   -0.419619
    10  H    0.150197
    11  H    0.150614
    12  H    0.150855
    13  C   -0.007079
    14  C   -0.131473
    15  C   -0.153863
    16  C   -0.137042
    17  C   -0.155627
    18  C   -0.162022
    19  H    0.166623
    20  H    0.163726
    21  H    0.159914
    22  H    0.159544
    23  H    0.160498
    24  C   -0.415089
    25  H    0.143529
    26  H    0.147828
    27  H    0.141303
 Sum of Mulliken atomic charges =   0.00000

 Dipole moment (field-independent basis, Debye):
    X=              1.6844    Y=              2.3570    Z=             -0.2800  Tot=              2.9105
 Quadrupole moment (field-independent basis, Debye-Ang):
   XX=            -66.4035   YY=            -73.4642   ZZ=            -81.4704
   XY=             -1.7317   XZ=             -8.2360   YZ=              2.6898

 Normal termination of Gaussian 09 at Tue Dec 21 08:28:55 2021.
