 Gaussian 09, Revision C.01,
 Gaussian 09:  EM64L-G09RevC.01 23-Sep-2011

 -----------------------------------------------------------------
 # mPW1PW91/6-31g** scrf=(pcm,solvent=chloroform,smd,dovacuum) nmr
 -----------------------------------------------------------------

 99/9=1/99;
 -------
 comment
 -------
 Charge =  0 Multiplicity = 1

                         Standard orientation:
 ---------------------------------------------------------------------
 Center     Atomic      Atomic             Coordinates (Angstroms)
 Number     Number       Type             X           Y           Z
 ---------------------------------------------------------------------
      1          6           0       -2.446610   -0.085756   -0.482465
      2          1           0       -2.405135    0.479708   -1.421029
      3          6           0       -1.485086    0.528622    0.549062
      4          1           0       -1.957956    1.441957    0.942427
      5          6           0       -0.244038    1.070278   -0.160750
      6          8           0       -0.303514    2.126689   -0.795676
      7          8           0       -2.069973   -1.429850   -0.780776
      8          1           0       -2.677495   -1.753537   -1.469983
      9          6           0       -1.214088   -0.337977    1.777954
     10          1           0       -0.441056    0.110619    2.411329
     11          1           0       -0.891225   -1.350384    1.522170
     12          1           0       -2.119850   -0.433225    2.386227
     13          6           0        1.067816    0.374970   -0.099175
     14          6           0        3.593279   -0.821062   -0.001750
     15          6           0        1.194668   -1.005631   -0.265995
     16          6           0        2.213992    1.158952    0.087597
     17          6           0        3.473492    0.560217    0.142499
     18          6           0        2.456809   -1.602325   -0.210300
     19          1           0        0.329329   -1.631838   -0.457555
     20          1           0        2.126730    2.239003    0.188133
     21          1           0        4.359651    1.172080    0.290910
     22          1           0        2.553233   -2.677748   -0.338952
     23          1           0        4.574276   -1.288315    0.036995
     24          6           0       -3.889169   -0.097818    0.015644
     25          1           0       -4.553397   -0.505523   -0.754446
     26          1           0       -4.233048    0.909801    0.267730
     27          1           0       -4.002559   -0.742133    0.893724
 ---------------------------------------------------------------------

 SCF Done:  E(RmPW1PW91) =  -577.939943631     A.U. after   12 cycles

      1  C    Isotropic =   126.2228   Anisotropy =    41.6216

      2  H    Isotropic =    27.0852   Anisotropy =     5.4001

      3  C    Isotropic =   143.8685   Anisotropy =    28.6518

      4  H    Isotropic =    28.8269   Anisotropy =     6.2315

      5  C    Isotropic =   -16.9556   Anisotropy =   181.0557

      6  O    Isotropic =  -280.5268   Anisotropy =   924.5775

      7  O    Isotropic =   283.1768   Anisotropy =    66.6298

      8  H    Isotropic =    30.3603   Anisotropy =    18.8838

      9  C    Isotropic =   184.5223   Anisotropy =     7.1539

     10  H    Isotropic =    30.8561   Anisotropy =     7.6489

     11  H    Isotropic =    30.0301   Anisotropy =     7.0319

     12  H    Isotropic =    30.4278   Anisotropy =    10.1459

     13  C    Isotropic =    60.5175   Anisotropy =   160.1047

     14  C    Isotropic =    68.3548   Anisotropy =   179.2977

     15  C    Isotropic =    72.0793   Anisotropy =   181.2577

     16  C    Isotropic =    69.5275   Anisotropy =   172.2336

     17  C    Isotropic =    70.3811   Anisotropy =   174.8225

     18  C    Isotropic =    71.4268   Anisotropy =   173.9689

     19  H    Isotropic =    23.2010   Anisotropy =     9.4341

     20  H    Isotropic =    23.7313   Anisotropy =     6.6431

     21  H    Isotropic =    23.7888   Anisotropy =     4.4903

     22  H    Isotropic =    23.8479   Anisotropy =     5.4133

     23  H    Isotropic =    23.7998   Anisotropy =     4.2844

     24  C    Isotropic =   170.6711   Anisotropy =    39.5005

     25  H    Isotropic =    30.5021   Anisotropy =     9.3207

     26  H    Isotropic =    30.5646   Anisotropy =    10.0709

     27  H    Isotropic =    30.0778   Anisotropy =     5.8911

 The electronic state is 1-A.
 Alpha  occ. eigenvalues --  -19.23329 -19.22692 -10.33464 -10.29749 -10.25917
 Alpha  occ. eigenvalues --  -10.25544 -10.25536 -10.25394 -10.25360 -10.25194
 Alpha  occ. eigenvalues --  -10.25183 -10.23066 -10.22826  -1.05999  -1.04295
 Alpha  occ. eigenvalues --   -0.88304  -0.82373  -0.78090  -0.76852  -0.74343
 Alpha  occ. eigenvalues --   -0.67840  -0.64838  -0.62300  -0.60378  -0.56222
 Alpha  occ. eigenvalues --   -0.52333  -0.51301  -0.48601  -0.46908  -0.46346
 Alpha  occ. eigenvalues --   -0.44926  -0.44411  -0.42957  -0.42705  -0.41216
 Alpha  occ. eigenvalues --   -0.40003  -0.38971  -0.37962  -0.37116  -0.37088
 Alpha  occ. eigenvalues --   -0.35945  -0.34687  -0.34252  -0.32768  -0.27821
 Alpha  occ. eigenvalues --   -0.26830  -0.26440  -0.25196
 Alpha virt. eigenvalues --   -0.04027   0.00054   0.03224   0.08639   0.11902
 Alpha virt. eigenvalues --    0.13469   0.15262   0.15618   0.16387   0.17102
 Alpha virt. eigenvalues --    0.17391   0.18390   0.18872   0.19951   0.20498

 Mulliken atomic charges:
              1
     1  C    0.130080
     2  H    0.141443
     3  C   -0.189413
     4  H    0.177368
     5  C    0.388837
     6  O   -0.499999
     7  O   -0.582273
     8  H    0.349908
     9  C   -0.416274
    10  H    0.148314
    11  H    0.152729
    12  H    0.146843
    13  C   -0.007690
    14  C   -0.137170
    15  C   -0.147685
    16  C   -0.142493
    17  C   -0.156702
    18  C   -0.160329
    19  H    0.168196
    20  H    0.160119
    21  H    0.157203
    22  H    0.156753
    23  H    0.156449
    24  C   -0.423428
    25  H    0.139086
    26  H    0.142303
    27  H    0.147824
 Sum of Mulliken atomic charges =   0.00000

 Dipole moment (field-independent basis, Debye):
    X=             -1.2877    Y=             -2.3570    Z=              0.8657  Tot=              2.8219
 Quadrupole moment (field-independent basis, Debye-Ang):
   XX=            -58.7680   YY=            -78.6082   ZZ=            -76.7735
   XY=              1.5165   XZ=              3.8862   YZ=              6.9999

 Normal termination of Gaussian 09 at Tue Dec 21 07:48:53 2021.
