 Gaussian 09, Revision C.01,
 Gaussian 09:  EM64L-G09RevC.01 23-Sep-2011

 -----------------------------------------------------------------
 # mPW1PW91/6-31g** scrf=(pcm,solvent=chloroform,smd,dovacuum) nmr
 -----------------------------------------------------------------

 99/9=1/99;
 -------
 comment
 -------
 Charge =  0 Multiplicity = 1

                         Standard orientation:
 ---------------------------------------------------------------------
 Center     Atomic      Atomic             Coordinates (Angstroms)
 Number     Number       Type             X           Y           Z
 ---------------------------------------------------------------------
      1          6           0       -1.793253   -0.829667    0.474130
      2          1           0       -0.867202   -1.306831    0.809738
      3          6           0       -1.506194    0.197188   -0.641913
      4          1           0       -1.286859   -0.326314   -1.580160
      5          6           0       -0.269791    1.039050   -0.302298
      6          8           0       -0.321370    2.258545   -0.141553
      7          8           0       -2.359110   -0.184804    1.611905
      8          1           0       -2.502848   -0.855818    2.301211
      9          6           0       -2.701476    1.115040   -0.927877
     10          1           0       -2.462948    1.815633   -1.736340
     11          1           0       -2.976572    1.712220   -0.051885
     12          1           0       -3.578657    0.541155   -1.240953
     13          6           0        1.065900    0.377115   -0.184904
     14          6           0        3.604452   -0.772475    0.097836
     15          6           0        2.045576    1.002623    0.598469
     16          6           0        1.373073   -0.822263   -0.839264
     17          6           0        2.639869   -1.395033   -0.693530
     18          6           0        3.309240    0.427337    0.741890
     19          1           0        1.824953    1.942495    1.102148
     20          1           0        0.654436   -1.323923   -1.478928
     21          1           0        2.878523   -2.325121   -1.204193
     22          1           0        4.062050    0.919136    1.353055
     23          1           0        4.590235   -1.218392    0.206839
     24          6           0       -2.749560   -1.926770    0.014612
     25          1           0       -2.881485   -2.669962    0.808924
     26          1           0       -2.370543   -2.438636   -0.875004
     27          1           0       -3.746256   -1.528442   -0.200170
 ---------------------------------------------------------------------

 SCF Done:  E(RmPW1PW91) =  -577.943792524     A.U. after   12 cycles

      1  C    Isotropic =   128.1793   Anisotropy =    43.6413

      2  H    Isotropic =    27.1542   Anisotropy =     8.8347

      3  C    Isotropic =   147.7982   Anisotropy =    22.1201

      4  H    Isotropic =    28.1261   Anisotropy =     7.1240

      5  C    Isotropic =    -9.5807   Anisotropy =   170.0679

      6  O    Isotropic =  -264.0280   Anisotropy =   962.7393

      7  O    Isotropic =   286.7548   Anisotropy =    66.1393

      8  H    Isotropic =    30.9726   Anisotropy =    18.8191

      9  C    Isotropic =   186.0855   Anisotropy =     8.0882

     10  H    Isotropic =    30.6283   Anisotropy =    10.1049

     11  H    Isotropic =    30.0588   Anisotropy =     8.8922

     12  H    Isotropic =    30.6002   Anisotropy =     8.9537

     13  C    Isotropic =    62.5594   Anisotropy =   159.5151

     14  C    Isotropic =    66.8495   Anisotropy =   180.5595

     15  C    Isotropic =    68.6978   Anisotropy =   178.8812

     16  C    Isotropic =    70.8503   Anisotropy =   173.0256

     17  C    Isotropic =    70.6770   Anisotropy =   173.2305

     18  C    Isotropic =    69.5171   Anisotropy =   175.1964

     19  H    Isotropic =    23.2320   Anisotropy =     6.9862

     20  H    Isotropic =    23.5429   Anisotropy =     8.5357

     21  H    Isotropic =    23.8135   Anisotropy =     5.1949

     22  H    Isotropic =    23.6949   Anisotropy =     4.7161

     23  H    Isotropic =    23.7028   Anisotropy =     4.4348

     24  C    Isotropic =   171.4721   Anisotropy =    38.0126

     25  H    Isotropic =    30.6599   Anisotropy =     9.3219

     26  H    Isotropic =    30.5511   Anisotropy =     9.3324

     27  H    Isotropic =    30.1520   Anisotropy =     6.4460

 The electronic state is 1-A.
 Alpha  occ. eigenvalues --  -19.22772 -19.22691 -10.33417 -10.29600 -10.26212
 Alpha  occ. eigenvalues --  -10.26041 -10.25739 -10.25677 -10.25607 -10.25551
 Alpha  occ. eigenvalues --  -10.25426 -10.22786 -10.22552  -1.06017  -1.03894
 Alpha  occ. eigenvalues --   -0.88549  -0.82163  -0.78162  -0.77126  -0.74211
 Alpha  occ. eigenvalues --   -0.68181  -0.64141  -0.62615  -0.60073  -0.55585
 Alpha  occ. eigenvalues --   -0.52748  -0.51730  -0.48876  -0.46996  -0.46139
 Alpha  occ. eigenvalues --   -0.45226  -0.44425  -0.43410  -0.42743  -0.40646
 Alpha  occ. eigenvalues --   -0.39556  -0.39034  -0.37452  -0.36804  -0.36572
 Alpha  occ. eigenvalues --   -0.36035  -0.35472  -0.34535  -0.32454  -0.27821
 Alpha  occ. eigenvalues --   -0.26911  -0.26597  -0.25351
 Alpha virt. eigenvalues --   -0.04537  -0.00274   0.04156   0.08853   0.11232
 Alpha virt. eigenvalues --    0.13438   0.14571   0.15929   0.16715   0.17064
 Alpha virt. eigenvalues --    0.17374   0.18309   0.19218   0.19752   0.20242

 Mulliken atomic charges:
              1
     1  C    0.139294
     2  H    0.131392
     3  C   -0.219359
     4  H    0.177606
     5  C    0.419727
     6  O   -0.498836
     7  O   -0.589085
     8  H    0.347789
     9  C   -0.396986
    10  H    0.141344
    11  H    0.154072
    12  H    0.135500
    13  C   -0.007374
    14  C   -0.133790
    15  C   -0.136278
    16  C   -0.152950
    17  C   -0.161055
    18  C   -0.156580
    19  H    0.163509
    20  H    0.162827
    21  H    0.158456
    22  H    0.159557
    23  H    0.159167
    24  C   -0.422348
    25  H    0.138178
    26  H    0.137305
    27  H    0.148916
 Sum of Mulliken atomic charges =   0.00000

 Dipole moment (field-independent basis, Debye):
    X=              1.0493    Y=             -5.4234    Z=             -0.3072  Tot=              5.5325
 Quadrupole moment (field-independent basis, Debye-Ang):
   XX=            -67.8669   YY=            -79.9664   ZZ=            -72.0136
   XY=              4.1083   XZ=              2.1654   YZ=              0.3730

 Normal termination of Gaussian 09 at Tue Dec 21 07:57:41 2021.
