 Gaussian 09, Revision C.01,
 Gaussian 09:  EM64L-G09RevC.01 23-Sep-2011

 -----------------------------------------------------------------
 # mPW1PW91/6-31g** scrf=(pcm,solvent=chloroform,smd,dovacuum) nmr
 -----------------------------------------------------------------

 99/9=1/99;
 -------
 comment
 -------
 Charge =  0 Multiplicity = 1

                         Standard orientation:
 ---------------------------------------------------------------------
 Center     Atomic      Atomic             Coordinates (Angstroms)
 Number     Number       Type             X           Y           Z
 ---------------------------------------------------------------------
      1          6           0        2.037882    0.729870   -0.473781
      2          1           0        1.251427    1.169599   -1.097843
      3          6           0        1.403769   -0.082404    0.669010
      4          1           0        1.026823    0.604245    1.436170
      5          6           0        0.234926   -0.898904    0.128309
      6          8           0        0.393125   -2.047204   -0.287154
      7          8           0        2.753988    1.825300    0.104128
      8          1           0        3.209658    2.295098   -0.616332
      9          6           0        2.395063   -0.984816    1.409908
     10          1           0        2.793556   -1.778300    0.769219
     11          1           0        1.901469   -1.476368    2.255993
     12          1           0        3.235853   -0.403763    1.802346
     13          6           0       -1.134950   -0.293852    0.071100
     14          6           0       -3.745932    0.724197   -0.076972
     15          6           0       -2.208993   -1.127774   -0.274611
     16          6           0       -1.383697    1.058861    0.336484
     17          6           0       -2.686142    1.563008    0.262998
     18          6           0       -3.508244   -0.621151   -0.346945
     19          1           0       -2.039166   -2.181838   -0.488711
     20          1           0       -0.587779    1.750749    0.595443
     21          1           0       -2.873435    2.614170    0.470541
     22          1           0       -4.332161   -1.278339   -0.614134
     23          1           0       -4.757319    1.119510   -0.132970
     24          6           0        2.979608   -0.055986   -1.380865
     25          1           0        3.319953    0.578382   -2.207193
     26          1           0        2.490533   -0.935948   -1.807767
     27          1           0        3.883948   -0.368264   -0.848371
 ---------------------------------------------------------------------

 SCF Done:  E(RmPW1PW91) =  -577.944977499     A.U. after   12 cycles

      1  C    Isotropic =   129.2569   Anisotropy =    47.1167

      2  H    Isotropic =    27.2662   Anisotropy =     5.4881

      3  C    Isotropic =   150.6073   Anisotropy =    24.0160

      4  H    Isotropic =    27.6582   Anisotropy =     8.4640

      5  C    Isotropic =    -4.7773   Anisotropy =   167.6027

      6  O    Isotropic =  -239.5193   Anisotropy =   958.7860

      7  O    Isotropic =   278.2559   Anisotropy =    71.9765

      8  H    Isotropic =    30.7200   Anisotropy =    18.2517

      9  C    Isotropic =   184.4667   Anisotropy =    12.8975

     10  H    Isotropic =    30.0538   Anisotropy =     8.0853

     11  H    Isotropic =    30.8897   Anisotropy =    10.2498

     12  H    Isotropic =    30.5036   Anisotropy =     9.2199

     13  C    Isotropic =    64.4057   Anisotropy =   158.6204

     14  C    Isotropic =    65.9747   Anisotropy =   182.2671

     15  C    Isotropic =    69.0628   Anisotropy =   184.4777

     16  C    Isotropic =    69.6766   Anisotropy =   176.3945

     17  C    Isotropic =    69.9694   Anisotropy =   173.1722

     18  C    Isotropic =    69.6145   Anisotropy =   174.2120

     19  H    Isotropic =    23.0607   Anisotropy =     7.3459

     20  H    Isotropic =    23.0862   Anisotropy =     9.4916

     21  H    Isotropic =    23.7158   Anisotropy =     5.4228

     22  H    Isotropic =    23.7021   Anisotropy =     4.8397

     23  H    Isotropic =    23.6833   Anisotropy =     4.5486

     24  C    Isotropic =   176.3442   Anisotropy =    29.3095

     25  H    Isotropic =    30.7709   Anisotropy =     9.7326

     26  H    Isotropic =    30.6254   Anisotropy =     8.9790

     27  H    Isotropic =    30.4188   Anisotropy =     6.6944

 The electronic state is 1-A.
 Alpha  occ. eigenvalues --  -19.22948 -19.22734 -10.33696 -10.29646 -10.26350
 Alpha  occ. eigenvalues --  -10.26139 -10.25866 -10.25753 -10.25582 -10.25485
 Alpha  occ. eigenvalues --  -10.25280 -10.22744 -10.22742  -1.06295  -1.03724
 Alpha  occ. eigenvalues --   -0.88603  -0.82299  -0.78278  -0.77148  -0.74082
 Alpha  occ. eigenvalues --   -0.68367  -0.64734  -0.62589  -0.59991  -0.55409
 Alpha  occ. eigenvalues --   -0.53076  -0.50732  -0.48469  -0.47213  -0.46867
 Alpha  occ. eigenvalues --   -0.45504  -0.44487  -0.43358  -0.43200  -0.40827
 Alpha  occ. eigenvalues --   -0.39597  -0.38408  -0.38229  -0.36844  -0.36358
 Alpha  occ. eigenvalues --   -0.36281  -0.35342  -0.34334  -0.32460  -0.27576
 Alpha  occ. eigenvalues --   -0.26745  -0.26703  -0.26133
 Alpha virt. eigenvalues --   -0.05235  -0.00322   0.04604   0.09723   0.11551
 Alpha virt. eigenvalues --    0.13025   0.14729   0.16218   0.17128   0.17453
 Alpha virt. eigenvalues --    0.17885   0.18245   0.19157   0.19579   0.20069

 Mulliken atomic charges:
              1
     1  C    0.152977
     2  H    0.129027
     3  C   -0.205912
     4  H    0.165533
     5  C    0.423838
     6  O   -0.509760
     7  O   -0.601334
     8  H    0.344011
     9  C   -0.407419
    10  H    0.149088
    11  H    0.143131
    12  H    0.144432
    13  C   -0.006428
    14  C   -0.130773
    15  C   -0.136179
    16  C   -0.156922
    17  C   -0.162569
    18  C   -0.155554
    19  H    0.163906
    20  H    0.168470
    21  H    0.159797
    22  H    0.159959
    23  H    0.160635
    24  C   -0.430625
    25  H    0.140576
    26  H    0.148851
    27  H    0.149243
 Sum of Mulliken atomic charges =   0.00000

 Dipole moment (field-independent basis, Debye):
    X=             -1.1139    Y=              2.9969    Z=             -0.8924  Tot=              3.3194
 Quadrupole moment (field-independent basis, Debye-Ang):
   XX=            -63.7947   YY=            -77.6949   ZZ=            -76.7959
   XY=              1.6312   XZ=             -3.9705   YZ=             -3.5165

 Normal termination of Gaussian 09 at Tue Dec 21 10:08:54 2021.
