 Gaussian 09, Revision C.01,
 Gaussian 09:  EM64L-G09RevC.01 23-Sep-2011

 -----------------------------------------------------------------
 # mPW1PW91/6-31g** scrf=(pcm,solvent=chloroform,smd,dovacuum) nmr
 -----------------------------------------------------------------

 99/9=1/99;
 -------
 comment
 -------
 Charge =  0 Multiplicity = 1

                         Standard orientation:
 ---------------------------------------------------------------------
 Center     Atomic      Atomic             Coordinates (Angstroms)
 Number     Number       Type             X           Y           Z
 ---------------------------------------------------------------------
      1          6           0       -2.561207    0.073927   -0.658193
      2          1           0       -2.245140    0.667945   -1.523994
      3          6           0       -1.310637   -0.472564    0.064226
      4          1           0       -0.951187   -1.305039   -0.551390
      5          6           0       -0.220364    0.594250    0.125743
      6          8           0       -0.496870    1.783203    0.286419
      7          8           0       -3.298041   -1.035610   -1.192610
      8          1           0       -3.802932   -1.441242   -0.467119
      9          6           0       -1.594503   -1.004761    1.467848
     10          1           0       -1.877215   -0.199982    2.155003
     11          1           0       -0.706664   -1.484169    1.893252
     12          1           0       -2.397955   -1.747866    1.453748
     13          6           0        1.222216    0.203380    0.013267
     14          6           0        3.956712   -0.395574   -0.201728
     15          6           0        2.173223    1.228951   -0.102858
     16          6           0        1.659388   -1.126921    0.026331
     17          6           0        3.022310   -1.422492   -0.082139
     18          6           0        3.533195    0.930766   -0.211060
     19          1           0        1.858745    2.271456   -0.111223
     20          1           0        0.970005   -1.958662    0.127557
     21          1           0        3.355702   -2.457765   -0.071492
     22          1           0        4.258916    1.735235   -0.302002
     23          1           0        5.015372   -0.628934   -0.285731
     24          6           0       -3.512268    0.919312    0.184984
     25          1           0       -4.338898    1.280294   -0.437524
     26          1           0       -3.014862    1.786537    0.625772
     27          1           0       -3.972989    0.331793    0.986139
 ---------------------------------------------------------------------

 SCF Done:  E(RmPW1PW91) =  -577.945434837     A.U. after   12 cycles

      1  C    Isotropic =   127.9546   Anisotropy =    55.4631

      2  H    Isotropic =    27.6389   Anisotropy =     4.0615

      3  C    Isotropic =   146.7951   Anisotropy =    38.1383

      4  H    Isotropic =    27.7861   Anisotropy =     7.9486

      5  C    Isotropic =    -7.8170   Anisotropy =   172.7006

      6  O    Isotropic =  -226.5562   Anisotropy =   928.6799

      7  O    Isotropic =   273.1038   Anisotropy =    75.2418

      8  H    Isotropic =    30.3727   Anisotropy =    13.5476

      9  C    Isotropic =   182.5168   Anisotropy =    16.4998

     10  H    Isotropic =    30.5485   Anisotropy =     7.9319

     11  H    Isotropic =    30.2814   Anisotropy =     8.7522

     12  H    Isotropic =    30.2903   Anisotropy =     8.8938

     13  C    Isotropic =    64.5060   Anisotropy =   158.7218

     14  C    Isotropic =    66.0835   Anisotropy =   182.3267

     15  C    Isotropic =    69.4078   Anisotropy =   185.0189

     16  C    Isotropic =    69.8899   Anisotropy =   175.2979

     17  C    Isotropic =    70.0637   Anisotropy =   173.1784

     18  C    Isotropic =    69.5946   Anisotropy =   174.0443

     19  H    Isotropic =    23.0875   Anisotropy =     7.4256

     20  H    Isotropic =    23.2291   Anisotropy =     9.4558

     21  H    Isotropic =    23.7466   Anisotropy =     5.3042

     22  H    Isotropic =    23.7094   Anisotropy =     4.8561

     23  H    Isotropic =    23.6853   Anisotropy =     4.5329

     24  C    Isotropic =   174.6782   Anisotropy =    31.4314

     25  H    Isotropic =    30.2334   Anisotropy =     9.6764

     26  H    Isotropic =    29.8094   Anisotropy =     9.9943

     27  H    Isotropic =    30.7148   Anisotropy =     5.9485

 The electronic state is 1-A.
 Alpha  occ. eigenvalues --  -19.22856 -19.22554 -10.33626 -10.29121 -10.26335
 Alpha  occ. eigenvalues --  -10.26154 -10.25857 -10.25741 -10.25594 -10.25479
 Alpha  occ. eigenvalues --  -10.25076 -10.23777 -10.22353  -1.06305  -1.03420
 Alpha  occ. eigenvalues --   -0.88597  -0.82117  -0.78280  -0.77144  -0.74075
 Alpha  occ. eigenvalues --   -0.68278  -0.65060  -0.62695  -0.60061  -0.55893
 Alpha  occ. eigenvalues --   -0.52651  -0.49760  -0.49123  -0.46780  -0.46338
 Alpha  occ. eigenvalues --   -0.45218  -0.44607  -0.43568  -0.42937  -0.41888
 Alpha  occ. eigenvalues --   -0.39280  -0.38957  -0.38193  -0.36756  -0.36580
 Alpha  occ. eigenvalues --   -0.36435  -0.35373  -0.34437  -0.31976  -0.27975
 Alpha  occ. eigenvalues --   -0.26966  -0.26671  -0.25508
 Alpha virt. eigenvalues --   -0.05129  -0.00321   0.04710   0.09723   0.11120
 Alpha virt. eigenvalues --    0.13282   0.15148   0.15450   0.16615   0.17296
 Alpha virt. eigenvalues --    0.17492   0.18501   0.19239   0.19564   0.20156

 Mulliken atomic charges:
              1
     1  C    0.135332
     2  H    0.146676
     3  C   -0.203375
     4  H    0.159098
     5  C    0.428550
     6  O   -0.512242
     7  O   -0.596820
     8  H    0.339756
     9  C   -0.413025
    10  H    0.155069
    11  H    0.150402
    12  H    0.147570
    13  C   -0.010006
    14  C   -0.130980
    15  C   -0.136415
    16  C   -0.155494
    17  C   -0.162360
    18  C   -0.155077
    19  H    0.163799
    20  H    0.165804
    21  H    0.159522
    22  H    0.159882
    23  H    0.160583
    24  C   -0.425240
    25  H    0.142972
    26  H    0.152039
    27  H    0.133978
 Sum of Mulliken atomic charges =   0.00000

 Dipole moment (field-independent basis, Debye):
    X=              1.5113    Y=             -2.8147    Z=              1.5216  Tot=              3.5386
 Quadrupole moment (field-independent basis, Debye-Ang):
   XX=            -63.6247   YY=            -75.2339   ZZ=            -81.7142
   XY=              1.7227   XZ=             -7.4246   YZ=             -4.4795

 Normal termination of Gaussian 09 at Tue Dec 21 10:35:11 2021.
