 Gaussian 09, Revision C.01,
 Gaussian 09:  EM64L-G09RevC.01 23-Sep-2011

 -----------------------------------------------------------------
 # mPW1PW91/6-31g** scrf=(pcm,solvent=chloroform,smd,dovacuum) nmr
 -----------------------------------------------------------------

 99/9=1/99;
 -------
 comment
 -------
 Charge =  0 Multiplicity = 1

                         Standard orientation:
 ---------------------------------------------------------------------
 Center     Atomic      Atomic             Coordinates (Angstroms)
 Number     Number       Type             X           Y           Z
 ---------------------------------------------------------------------
      1          6           0        2.479632   -0.475254   -0.323240
      2          1           0        2.674910   -1.216304    0.460631
      3          6           0        1.407978    0.536368    0.122066
      4          1           0        1.048927    1.059133   -0.770196
      5          6           0        0.260750   -0.237224    0.768156
      6          8           0        0.454085   -1.012578    1.706188
      7          8           0        1.966322   -1.176337   -1.462975
      8          1           0        2.556896   -1.933325   -1.624359
      9          6           0        1.908739    1.561783    1.137096
     10          1           0        2.388671    1.074285    1.992925
     11          1           0        1.080694    2.165588    1.524934
     12          1           0        2.630537    2.248219    0.683742
     13          6           0       -1.132333   -0.047396    0.270432
     14          6           0       -3.779843    0.216253   -0.601357
     15          6           0       -2.046309   -1.094153    0.452192
     16          6           0       -1.558508    1.140500   -0.334491
     17          6           0       -2.879840    1.267670   -0.772330
     18          6           0       -3.364987   -0.963605    0.013364
     19          1           0       -1.730945   -2.017482    0.934563
     20          1           0       -0.890213    1.986614   -0.459805
     21          1           0       -3.209576    2.190876   -1.242900
     22          1           0       -4.066535   -1.782042    0.153784
     23          1           0       -4.807246    0.318586   -0.942183
     24          6           0        3.796507    0.168394   -0.743038
     25          1           0        4.471540   -0.583036   -1.167587
     26          1           0        4.305230    0.641154    0.101767
     27          1           0        3.633134    0.919033   -1.524125
 ---------------------------------------------------------------------

 SCF Done:  E(RmPW1PW91) =  -577.944967974     A.U. after   12 cycles

      1  C    Isotropic =   124.0289   Anisotropy =    46.4763

      2  H    Isotropic =    27.1750   Anisotropy =     4.4541

      3  C    Isotropic =   146.7249   Anisotropy =    25.9513

      4  H    Isotropic =    28.1023   Anisotropy =     7.4357

      5  C    Isotropic =   -12.7949   Anisotropy =   181.6383

      6  O    Isotropic =  -234.5533   Anisotropy =   936.9174

      7  O    Isotropic =   277.5271   Anisotropy =    84.5558

      8  H    Isotropic =    30.8040   Anisotropy =    19.4678

      9  C    Isotropic =   179.1199   Anisotropy =    20.0493

     10  H    Isotropic =    30.5160   Anisotropy =     8.7665

     11  H    Isotropic =    30.4533   Anisotropy =     8.6334

     12  H    Isotropic =    30.4196   Anisotropy =     8.8756

     13  C    Isotropic =    60.2500   Anisotropy =   162.3280

     14  C    Isotropic =    66.8101   Anisotropy =   181.1073

     15  C    Isotropic =    69.6752   Anisotropy =   178.2945

     16  C    Isotropic =    71.2590   Anisotropy =   174.6328

     17  C    Isotropic =    70.4936   Anisotropy =   173.8274

     18  C    Isotropic =    69.8768   Anisotropy =   174.5548

     19  H    Isotropic =    23.3614   Anisotropy =     7.1224

     20  H    Isotropic =    23.3777   Anisotropy =     8.7563

     21  H    Isotropic =    23.7831   Anisotropy =     5.1348

     22  H    Isotropic =    23.7467   Anisotropy =     4.7464

     23  H    Isotropic =    23.7074   Anisotropy =     4.4207

     24  C    Isotropic =   172.4233   Anisotropy =    30.6421

     25  H    Isotropic =    30.6599   Anisotropy =     9.3721

     26  H    Isotropic =    30.3697   Anisotropy =     8.3248

     27  H    Isotropic =    30.5615   Anisotropy =     7.3986

 The electronic state is 1-A.
 Alpha  occ. eigenvalues --  -19.22683 -19.22543 -10.33393 -10.29180 -10.26110
 Alpha  occ. eigenvalues --  -10.25972 -10.25680 -10.25636 -10.25471 -10.25362
 Alpha  occ. eigenvalues --  -10.25308 -10.23644 -10.22572  -1.06061  -1.03482
 Alpha  occ. eigenvalues --   -0.88487  -0.82412  -0.78272  -0.77068  -0.74049
 Alpha  occ. eigenvalues --   -0.68216  -0.64797  -0.62591  -0.59455  -0.55355
 Alpha  occ. eigenvalues --   -0.53600  -0.51078  -0.48460  -0.47310  -0.46139
 Alpha  occ. eigenvalues --   -0.44934  -0.44603  -0.43283  -0.42535  -0.41306
 Alpha  occ. eigenvalues --   -0.39111  -0.38801  -0.37767  -0.37604  -0.36594
 Alpha  occ. eigenvalues --   -0.35863  -0.35419  -0.34978  -0.32360  -0.27429
 Alpha  occ. eigenvalues --   -0.26741  -0.26582  -0.25589
 Alpha virt. eigenvalues --   -0.04623  -0.00190   0.04288   0.10154   0.10832
 Alpha virt. eigenvalues --    0.12699   0.14973   0.15931   0.16533   0.17337
 Alpha virt. eigenvalues --    0.17870   0.18455   0.18969   0.19371   0.19719

 Mulliken atomic charges:
              1
     1  C    0.134756
     2  H    0.136641
     3  C   -0.183300
     4  H    0.154357
     5  C    0.423786
     6  O   -0.518299
     7  O   -0.599697
     8  H    0.345519
     9  C   -0.412222
    10  H    0.154929
    11  H    0.151065
    12  H    0.152486
    13  C   -0.003994
    14  C   -0.133399
    15  C   -0.137299
    16  C   -0.152376
    17  C   -0.160125
    18  C   -0.156094
    19  H    0.162852
    20  H    0.166248
    21  H    0.158605
    22  H    0.159123
    23  H    0.159310
    24  C   -0.420849
    25  H    0.137544
    26  H    0.138961
    27  H    0.141472
 Sum of Mulliken atomic charges =   0.00000

 Dipole moment (field-independent basis, Debye):
    X=              0.4270    Y=              1.6693    Z=             -1.7454  Tot=              2.4526
 Quadrupole moment (field-independent basis, Debye-Ang):
   XX=            -58.9998   YY=            -68.9502   ZZ=            -84.1591
   XY=             -1.6969   XZ=              0.5500   YZ=              1.8225

 Normal termination of Gaussian 09 at Tue Dec 21 09:55:43 2021.
