 Gaussian 09, Revision C.01,
 Gaussian 09:  EM64L-G09RevC.01 23-Sep-2011

 -----------------------------------------------------------------
 # mPW1PW91/6-31g** scrf=(pcm,solvent=chloroform,smd,dovacuum) nmr
 -----------------------------------------------------------------

 99/9=1/99;
 -------
 comment
 -------
 Charge =  0 Multiplicity = 1

                         Standard orientation:
 ---------------------------------------------------------------------
 Center     Atomic      Atomic             Coordinates (Angstroms)
 Number     Number       Type             X           Y           Z
 ---------------------------------------------------------------------
      1          6           0        2.298006    0.486916   -0.508427
      2          1           0        2.275521   -0.031439   -1.474046
      3          6           0        1.451613   -0.271815    0.531346
      4          1           0        1.101745    0.411854    1.311563
      5          6           0        0.252360   -0.895654   -0.185490
      6          8           0        0.380919   -1.916584   -0.864693
      7          8           0        1.700874    1.772515   -0.726554
      8          1           0        2.125186    2.416237   -0.133301
      9          6           0        2.205067   -1.404636    1.236831
     10          1           0        2.673872   -2.086528    0.518685
     11          1           0        1.522917   -1.997696    1.856703
     12          1           0        2.985362   -1.009485    1.895068
     13          6           0       -1.110066   -0.296320   -0.044733
     14          6           0       -3.719203    0.706537    0.192621
     15          6           0       -1.324795    1.025166    0.360091
     16          6           0       -2.216578   -1.106171   -0.342015
     17          6           0       -3.515282   -0.607655   -0.220867
     18          6           0       -2.626309    1.522742    0.479359
     19          1           0       -0.499992    1.699137    0.564899
     20          1           0       -2.070693   -2.133951   -0.670201
     21          1           0       -4.364526   -1.245087   -0.453746
     22          1           0       -2.786335    2.553272    0.787372
     23          1           0       -4.729606    1.097657    0.282639
     24          6           0        3.757564    0.701781   -0.115171
     25          1           0        4.255816    1.351480   -0.843393
     26          1           0        4.309163   -0.241535   -0.069503
     27          1           0        3.832970    1.203300    0.855962
 ---------------------------------------------------------------------

 SCF Done:  E(RmPW1PW91) =  -577.943352010     A.U. after   12 cycles

      1  C    Isotropic =   125.3459   Anisotropy =    49.8064

      2  H    Isotropic =    27.6253   Anisotropy =     3.9902

      3  C    Isotropic =   145.0308   Anisotropy =    27.7475

      4  H    Isotropic =    28.0294   Anisotropy =     7.8643

      5  C    Isotropic =   -11.5350   Anisotropy =   176.6045

      6  O    Isotropic =  -226.2636   Anisotropy =   928.7131

      7  O    Isotropic =   265.8863   Anisotropy =    42.7519

      8  H    Isotropic =    30.5143   Anisotropy =    14.3838

      9  C    Isotropic =   179.9975   Anisotropy =    16.1146

     10  H    Isotropic =    30.3344   Anisotropy =     8.5904

     11  H    Isotropic =    30.9086   Anisotropy =     9.6073

     12  H    Isotropic =    30.6722   Anisotropy =     8.4104

     13  C    Isotropic =    61.9610   Anisotropy =   161.1145

     14  C    Isotropic =    66.6142   Anisotropy =   181.2897

     15  C    Isotropic =    68.1148   Anisotropy =   181.1549

     16  C    Isotropic =    68.9572   Anisotropy =   180.9540

     17  C    Isotropic =    70.3702   Anisotropy =   172.9857

     18  C    Isotropic =    70.3910   Anisotropy =   172.9869

     19  H    Isotropic =    22.9510   Anisotropy =     9.7248

     20  H    Isotropic =    23.1830   Anisotropy =     7.2877

     21  H    Isotropic =    23.7428   Anisotropy =     4.7521

     22  H    Isotropic =    23.7640   Anisotropy =     5.5595

     23  H    Isotropic =    23.7067   Anisotropy =     4.5608

     24  C    Isotropic =   173.4188   Anisotropy =    29.7883

     25  H    Isotropic =    30.3457   Anisotropy =     9.6024

     26  H    Isotropic =    30.1792   Anisotropy =     8.6536

     27  H    Isotropic =    30.7008   Anisotropy =     7.0277

 The electronic state is 1-A.
 Alpha  occ. eigenvalues --  -19.22931 -19.22537 -10.33307 -10.29701 -10.25977
 Alpha  occ. eigenvalues --  -10.25642 -10.25621 -10.25531 -10.25298 -10.25254
 Alpha  occ. eigenvalues --  -10.25080 -10.23232 -10.23220  -1.05920  -1.03864
 Alpha  occ. eigenvalues --   -0.88325  -0.82129  -0.78177  -0.76889  -0.74268
 Alpha  occ. eigenvalues --   -0.68339  -0.64715  -0.62407  -0.60145  -0.55754
 Alpha  occ. eigenvalues --   -0.52987  -0.49709  -0.49125  -0.46745  -0.46322
 Alpha  occ. eigenvalues --   -0.45276  -0.44863  -0.43120  -0.42930  -0.41332
 Alpha  occ. eigenvalues --   -0.39289  -0.38624  -0.38534  -0.37580  -0.36161
 Alpha  occ. eigenvalues --   -0.35748  -0.35015  -0.34408  -0.32609  -0.27959
 Alpha  occ. eigenvalues --   -0.26690  -0.26467  -0.25517
 Alpha virt. eigenvalues --   -0.04825  -0.00022   0.04673   0.10049   0.12017
 Alpha virt. eigenvalues --    0.12398   0.14068   0.16440   0.16877   0.16991
 Alpha virt. eigenvalues --    0.17607   0.18052   0.19019   0.19602   0.19832

 Mulliken atomic charges:
              1
     1  C    0.139510
     2  H    0.155769
     3  C   -0.180563
     4  H    0.151991
     5  C    0.419267
     6  O   -0.514783
     7  O   -0.591351
     8  H    0.343777
     9  C   -0.412233
    10  H    0.151928
    11  H    0.146091
    12  H    0.143717
    13  C   -0.014044
    14  C   -0.132517
    15  C   -0.144143
    16  C   -0.138766
    17  C   -0.156433
    18  C   -0.162211
    19  H    0.156862
    20  H    0.161841
    21  H    0.158151
    22  H    0.157131
    23  H    0.158639
    24  C   -0.446530
    25  H    0.152241
    26  H    0.152933
    27  H    0.143725
 Sum of Mulliken atomic charges =   0.00000

 Dipole moment (field-independent basis, Debye):
    X=              0.8149    Y=              2.7831    Z=              3.0948  Tot=              4.2411
 Quadrupole moment (field-independent basis, Debye-Ang):
   XX=            -58.9850   YY=            -75.6571   ZZ=            -80.3666
   XY=              3.2478   XZ=              2.7987   YZ=              2.0797

 Normal termination of Gaussian 09 at Tue Dec 21 10:27:49 2021.
