 Gaussian 09, Revision C.01,
 Gaussian 09:  EM64L-G09RevC.01 23-Sep-2011

 -----------------------------------------------------------------
 # mPW1PW91/6-31g** scrf=(pcm,solvent=chloroform,smd,dovacuum) nmr
 -----------------------------------------------------------------

 99/9=1/99;
 -------
 comment
 -------
 Charge =  0 Multiplicity = 1

                         Standard orientation:
 ---------------------------------------------------------------------
 Center     Atomic      Atomic             Coordinates (Angstroms)
 Number     Number       Type             X           Y           Z
 ---------------------------------------------------------------------
      1          6           0       -2.019256    0.749127    0.495645
      2          1           0       -1.217277    1.196470    1.093204
      3          6           0       -1.409286   -0.068390   -0.656429
      4          1           0       -1.039226    0.615807   -1.429367
      5          6           0       -0.236857   -0.894565   -0.136824
      6          8           0       -0.394487   -2.052879    0.250092
      7          8           0       -2.754248    1.847354   -0.052436
      8          1           0       -3.595125    1.504236   -0.402370
      9          6           0       -2.418289   -0.965663   -1.380248
     10          1           0       -2.821336   -1.747106   -0.727779
     11          1           0       -1.937799   -1.472259   -2.225070
     12          1           0       -3.255225   -0.380014   -1.773402
     13          6           0        1.133594   -0.291549   -0.075514
     14          6           0        3.746522    0.720988    0.073016
     15          6           0        1.382156    1.065051   -0.320099
     16          6           0        2.208729   -1.132428    0.249274
     17          6           0        3.509007   -0.628473    0.321792
     18          6           0        2.685560    1.566520   -0.245963
     19          1           0        0.585344    1.762915   -0.560207
     20          1           0        2.039119   -2.189589    0.447489
     21          1           0        4.333811   -1.290594    0.573585
     22          1           0        2.872206    2.621371   -0.434747
     23          1           0        4.758445    1.114697    0.130574
     24          6           0       -2.922126   -0.029079    1.447232
     25          1           0       -3.259763    0.625062    2.259027
     26          1           0       -2.402055   -0.883459    1.889315
     27          1           0       -3.829761   -0.382570    0.947215
 ---------------------------------------------------------------------

 SCF Done:  E(RmPW1PW91) =  -577.945804211     A.U. after   12 cycles

      1  C    Isotropic =   128.5589   Anisotropy =    48.6996

      2  H    Isotropic =    27.3717   Anisotropy =     5.2984

      3  C    Isotropic =   146.3732   Anisotropy =    29.6155

      4  H    Isotropic =    27.6576   Anisotropy =     8.4452

      5  C    Isotropic =    -5.2216   Anisotropy =   168.6287

      6  O    Isotropic =  -235.9288   Anisotropy =   953.4031

      7  O    Isotropic =   274.7608   Anisotropy =    63.1703

      8  H    Isotropic =    30.2795   Anisotropy =    13.8511

      9  C    Isotropic =   185.1933   Anisotropy =    10.6601

     10  H    Isotropic =    30.0990   Anisotropy =     8.1891

     11  H    Isotropic =    30.8360   Anisotropy =    10.1987

     12  H    Isotropic =    30.7422   Anisotropy =     8.9049

     13  C    Isotropic =    64.6105   Anisotropy =   158.9727

     14  C    Isotropic =    66.0258   Anisotropy =   182.1898

     15  C    Isotropic =    69.6092   Anisotropy =   176.4385

     16  C    Isotropic =    69.1782   Anisotropy =   184.3464

     17  C    Isotropic =    69.6010   Anisotropy =   174.2106

     18  C    Isotropic =    69.8984   Anisotropy =   173.2925

     19  H    Isotropic =    23.0458   Anisotropy =     9.4187

     20  H    Isotropic =    23.0695   Anisotropy =     7.3575

     21  H    Isotropic =    23.6984   Anisotropy =     4.8384

     22  H    Isotropic =    23.7023   Anisotropy =     5.4272

     23  H    Isotropic =    23.6794   Anisotropy =     4.5471

     24  C    Isotropic =   177.1536   Anisotropy =    28.8070

     25  H    Isotropic =    30.4259   Anisotropy =     9.9632

     26  H    Isotropic =    30.6641   Anisotropy =     9.1680

     27  H    Isotropic =    30.7072   Anisotropy =     6.5417

 The electronic state is 1-A.
 Alpha  occ. eigenvalues --  -19.22884 -19.22802 -10.33528 -10.29689 -10.26320
 Alpha  occ. eigenvalues --  -10.26116 -10.25844 -10.25733 -10.25561 -10.25470
 Alpha  occ. eigenvalues --  -10.25038 -10.23054 -10.22866  -1.06181  -1.03848
 Alpha  occ. eigenvalues --   -0.88581  -0.82164  -0.78245  -0.77130  -0.74367
 Alpha  occ. eigenvalues --   -0.68522  -0.64699  -0.62554  -0.60281  -0.55782
 Alpha  occ. eigenvalues --   -0.52542  -0.50524  -0.49095  -0.47094  -0.46489
 Alpha  occ. eigenvalues --   -0.45286  -0.44794  -0.43434  -0.43216  -0.40735
 Alpha  occ. eigenvalues --   -0.39435  -0.38862  -0.38017  -0.37130  -0.36714
 Alpha  occ. eigenvalues --   -0.36247  -0.35351  -0.34397  -0.32162  -0.28448
 Alpha  occ. eigenvalues --   -0.26933  -0.26657  -0.25527
 Alpha virt. eigenvalues --   -0.05163  -0.00308   0.04689   0.09587   0.11331
 Alpha virt. eigenvalues --    0.13156   0.14485   0.15079   0.17091   0.17523
 Alpha virt. eigenvalues --    0.17901   0.18270   0.19133   0.19765   0.20131

 Mulliken atomic charges:
              1
     1  C    0.136159
     2  H    0.149539
     3  C   -0.207558
     4  H    0.163091
     5  C    0.422731
     6  O   -0.512481
     7  O   -0.593602
     8  H    0.342116
     9  C   -0.413484
    10  H    0.151805
    11  H    0.147620
    12  H    0.134835
    13  C   -0.006761
    14  C   -0.130882
    15  C   -0.157334
    16  C   -0.136451
    17  C   -0.155602
    18  C   -0.162638
    19  H    0.168766
    20  H    0.163452
    21  H    0.159812
    22  H    0.159915
    23  H    0.160541
    24  C   -0.424451
    25  H    0.149459
    26  H    0.149683
    27  H    0.141720
 Sum of Mulliken atomic charges =   0.00000

 Dipole moment (field-independent basis, Debye):
    X=              0.4736    Y=              1.6273    Z=             -0.8229  Tot=              1.8840
 Quadrupole moment (field-independent basis, Debye-Ang):
   XX=            -59.0812   YY=            -83.6262   ZZ=            -77.0718
   XY=              2.3413   XZ=              2.6796   YZ=             -0.4854

 Normal termination of Gaussian 09 at Tue Dec 21 09:19:55 2021.
